<PP_INFO>
Generated using ADC code                                   
Author: A. Dal Corso    Generation date: Apr 2003                   
Info: automatically converted from PWSCF format                                 
    0        The Pseudo was generated with a Relativistic Calculation
  0.00000000000E+00    Local Potential cutoff radius
nl pn  l   occ               Rcut            Rcut US             E pseu
3S  0  0  2.00      1.60000000000      1.60000000000      0.00000000000
3P  0  1  6.00      1.80000000000      1.80000000000      0.00000000000
</PP_INFO>


<PP_HEADER>
   0                   Version Number
  Ar                   Element
   NC                  Norm - Conserving pseudopotential
    F                  Nonlinear Core Correction
 SLA  PZ   NOGX NOGC   PZ   Exchange-Correlation functional
    8.00000000000      Z valence
    0.00000000000      Total energy
45.0000000 180.0000000 Suggested cutoff for wfc and rho
    1                  Max angular momentum component
  967                  Number of points in mesh
    2    2             Number of Wavefunctions, Number of Projectors
 Wavefunctions         nl  l   occ
                       3S  0  2.00
                       3P  1  6.00
</PP_HEADER>


<PP_MESH>
  <PP_R>
  5.06601091975E-05  5.14257387012E-05  5.22029392131E-05  5.29918856066E-05
  5.37927553979E-05  5.46057287860E-05  5.54309886936E-05  5.62687208074E-05
  5.71191136208E-05  5.79823584758E-05  5.88586496060E-05  5.97481841807E-05
  6.06511623489E-05  6.15677872845E-05  6.24982652319E-05  6.34428055528E-05
  6.44016207725E-05  6.53749266286E-05  6.63629421190E-05  6.73658895513E-05
  6.83839945930E-05  6.94174863219E-05  7.04665972782E-05  7.15315635161E-05
  7.26126246576E-05  7.37100239459E-05  7.48240083007E-05  7.59548283729E-05
  7.71027386020E-05  7.82679972725E-05  7.94508665727E-05  8.06516126529E-05
  8.18705056863E-05  8.31078199289E-05  8.43638337815E-05  8.56388298527E-05
  8.69330950219E-05  8.82469205042E-05  8.95806019159E-05  9.09344393410E-05
  9.23087373986E-05  9.37038053115E-05  9.51199569759E-05  9.65575110319E-05
  9.80167909352E-05  9.94981250301E-05  1.01001846623E-04  1.02528294057E-04
  1.04077810790E-04  1.05650745470E-04  1.07247452013E-04  1.08868289685E-04
  1.10513623181E-04  1.12183822709E-04  1.13879264071E-04  1.15600328747E-04
  1.17347403985E-04  1.19120882884E-04  1.20921164484E-04  1.22748653856E-04
  1.24603762194E-04  1.26486906903E-04  1.28398511700E-04  1.30339006704E-04
  1.32308828534E-04  1.34308420409E-04  1.36338232245E-04  1.38398720759E-04
  1.40490349568E-04  1.42613589299E-04  1.44768917689E-04  1.46956819697E-04
  1.49177787609E-04  1.51432321152E-04  1.53720927606E-04  1.56044121918E-04
  1.58402426816E-04  1.60796372927E-04  1.63226498901E-04  1.65693351526E-04
  1.68197485854E-04  1.70739465326E-04  1.73319861898E-04  1.75939256170E-04
  1.78598237517E-04  1.81297404221E-04  1.84037363606E-04  1.86818732173E-04
  1.89642135744E-04  1.92508209596E-04  1.95417598606E-04  1.98370957401E-04
  2.01368950498E-04  2.04412252459E-04  2.07501548038E-04  2.10637532342E-04
  2.13820910978E-04  2.17052400222E-04  2.20332727172E-04  2.23662629914E-04
  2.27042857692E-04  2.30474171071E-04  2.33957342111E-04  2.37493154540E-04
  2.41082403930E-04  2.44725897878E-04  2.48424456186E-04  2.52178911044E-04
  2.55990107222E-04  2.59858902253E-04  2.63786166634E-04  2.67772784015E-04
  2.71819651402E-04  2.75927679358E-04  2.80097792205E-04  2.84330928237E-04
  2.88628039928E-04  2.92990094145E-04  2.97418072370E-04  3.01912970916E-04
  3.06475801153E-04  3.11107589739E-04  3.15809378846E-04  3.20582226394E-04
  3.25427206296E-04  3.30345408693E-04  3.35337940200E-04  3.40405924158E-04
  3.45550500886E-04  3.50772827934E-04  3.56074080348E-04  3.61455450932E-04
  3.66918150517E-04  3.72463408235E-04  3.78092471791E-04  3.83806607747E-04
  3.89607101810E-04  3.95495259115E-04  4.01472404521E-04  4.07539882912E-04
  4.13699059496E-04  4.19951320113E-04  4.26298071550E-04  4.32740741851E-04
  4.39280780644E-04  4.45919659466E-04  4.52658872093E-04  4.59499934876E-04
  4.66444387083E-04  4.73493791244E-04  4.80649733507E-04  4.87913823987E-04
  4.95287697136E-04  5.02773012106E-04  5.10371453125E-04  5.18084729874E-04
  5.25914577873E-04  5.33862758871E-04  5.41931061241E-04  5.50121300387E-04
  5.58435319146E-04  5.66874988208E-04  5.75442206534E-04  5.84138901784E-04
  5.92967030751E-04  6.01928579802E-04  6.11025565323E-04  6.20260034173E-04
  6.29634064148E-04  6.39149764444E-04  6.48809276133E-04  6.58614772647E-04
  6.68568460262E-04  6.78672578602E-04  6.88929401136E-04  6.99341235691E-04
  7.09910424974E-04  7.20639347098E-04  7.31530416116E-04  7.42586082563E-04
  7.53808834011E-04  7.65201195627E-04  7.76765730741E-04  7.88505041421E-04
  8.00421769062E-04  8.12518594977E-04  8.24798241005E-04  8.37263470116E-04
  8.49917087040E-04  8.62761938895E-04  8.75800915825E-04  8.89036951657E-04
  9.02473024553E-04  9.16112157687E-04  9.29957419921E-04  9.44011926498E-04
  9.58278839741E-04  9.72761369766E-04  9.87462775203E-04  1.00238636393E-03
  1.01753549382E-03  1.03291357349E-03  1.04852406306E-03  1.06437047498E-03
  1.08045637474E-03  1.09678538175E-03  1.11336117009E-03  1.13018746940E-03
  1.14726806565E-03  1.16460680206E-03  1.18220757991E-03  1.20007435945E-03
  1.21821116079E-03  1.23662206478E-03  1.25531121395E-03  1.27428281344E-03
  1.29354113194E-03  1.31309050265E-03  1.33293532426E-03  1.35308006195E-03
  1.37352924835E-03  1.39428748463E-03  1.41535944148E-03  1.43674986018E-03
  1.45846355365E-03  1.48050540758E-03  1.50288038146E-03  1.52559350978E-03
  1.54864990307E-03  1.57205474912E-03  1.59581331412E-03  1.61993094386E-03
  1.64441306488E-03  1.66926518579E-03  1.69449289840E-03  1.72010187907E-03
  1.74609788991E-03  1.77248678014E-03  1.79927448738E-03  1.82646703897E-03
  1.85407055335E-03  1.88209124143E-03  1.91053540797E-03  1.93940945304E-03
  1.96871987342E-03  1.99847326408E-03  2.02867631965E-03  2.05933583596E-03
  2.09045871151E-03  2.12205194909E-03  2.15412265732E-03  2.18667805223E-03
  2.21972545893E-03  2.25327231322E-03  2.28732616328E-03  2.32189467138E-03
  2.35698561558E-03  2.39260689149E-03  2.42876651404E-03  2.46547261930E-03
  2.50273346631E-03  2.54055743890E-03  2.57895304764E-03  2.61792893168E-03
  2.65749386079E-03  2.69765673722E-03  2.73842659780E-03  2.77981261592E-03
  2.82182410361E-03  2.86447051362E-03  2.90776144158E-03  2.95170662813E-03
  2.99631596113E-03  3.04159947786E-03  3.08756736730E-03  3.13422997243E-03
  3.18159779253E-03  3.22968148555E-03  3.27849187052E-03  3.32803993001E-03
  3.37833681251E-03  3.42939383505E-03  3.48122248568E-03  3.53383442604E-03
  3.58724149406E-03  3.64145570656E-03  3.69648926195E-03  3.75235454301E-03
  3.80906411968E-03  3.86663075185E-03  3.92506739225E-03  3.98438718937E-03
  4.04460349041E-03  4.10572984431E-03  4.16778000474E-03  4.23076793326E-03
  4.29470780241E-03  4.35961399893E-03  4.42550112699E-03  4.49238401148E-03
  4.56027770133E-03  4.62919747289E-03  4.69915883342E-03  4.77017752451E-03
  4.84226952567E-03  4.91545105789E-03  4.98973858735E-03  5.06514882903E-03
  5.14169875057E-03  5.21940557603E-03  5.29828678975E-03  5.37836014036E-03
  5.45964364469E-03  5.54215559187E-03  5.62591454744E-03  5.71093935752E-03
  5.79724915304E-03  5.88486335409E-03  5.97380167421E-03  6.06408412491E-03
  6.15573102013E-03  6.24876298079E-03  6.34320093949E-03  6.43906614516E-03
  6.53638016788E-03  6.63516490371E-03  6.73544257963E-03  6.83723575855E-03
  6.94056734437E-03  7.04546058711E-03  7.15193908821E-03  7.26002680578E-03
  7.36974806001E-03  7.48112753864E-03  7.59419030253E-03  7.70896179128E-03
  7.82546782895E-03  7.94373462989E-03  8.06378880465E-03  8.18565736590E-03
  8.30936773459E-03  8.43494774608E-03  8.56242565640E-03  8.69183014861E-03
  8.82319033927E-03  8.95653578499E-03  9.09189648904E-03  9.22930290816E-03
  9.36878595937E-03  9.51037702694E-03  9.65410796947E-03  9.80001112702E-03
  9.94811932842E-03  1.00984658986E-02  1.02510846663E-02  1.04060099712E-02
  1.05632766723E-02  1.07229201552E-02  1.08849763404E-02  1.10494816912E-02
  1.12164732219E-02  1.13859885065E-02  1.15580656865E-02  1.17327434801E-02
  1.19100611904E-02  1.20900587147E-02  1.22727765533E-02  1.24582558184E-02
  1.26465382435E-02  1.28376661932E-02  1.30316826719E-02  1.32286313341E-02
  1.34285564943E-02  1.36315031363E-02  1.38375169240E-02  1.40466442114E-02
  1.42589320530E-02  1.44744282144E-02  1.46931811833E-02  1.49152401800E-02
  1.51406551686E-02  1.53694768684E-02  1.56017567655E-02  1.58375471236E-02
  1.60769009966E-02  1.63198722402E-02  1.65665155239E-02  1.68168863435E-02
  1.70710410334E-02  1.73290367796E-02  1.75909316322E-02  1.78567845186E-02
  1.81266552568E-02  1.84006045690E-02  1.86786940948E-02  1.89609864056E-02
  1.92475450183E-02  1.95384344099E-02  1.98337200316E-02  2.01334683240E-02
  2.04377467317E-02  2.07466237187E-02  2.10601687835E-02  2.13784524752E-02
  2.17015464088E-02  2.20295232819E-02  2.23624568908E-02  2.27004221467E-02
  2.30434950934E-02  2.33917529237E-02  2.37452739972E-02  2.41041378574E-02
  2.44684252503E-02  2.48382181422E-02  2.52135997379E-02  2.55946544999E-02
  2.59814681672E-02  2.63741277744E-02  2.67727216717E-02  2.71773395442E-02
  2.75880724329E-02  2.80050127542E-02  2.84282543215E-02  2.88578923659E-02
  2.92940235579E-02  2.97367460288E-02  3.01861593930E-02  3.06423647704E-02
  3.11054648092E-02  3.15755637088E-02  3.20527672434E-02  3.25371827858E-02
  3.30289193317E-02  3.35280875237E-02  3.40347996769E-02  3.45491698036E-02
  3.50713136393E-02  3.56013486685E-02  3.61393941513E-02  3.66855711503E-02
  3.72400025575E-02  3.78028131225E-02  3.83741294799E-02  3.89540801783E-02
  3.95427957090E-02  4.01404085357E-02  4.07470531236E-02  4.13628659703E-02
  4.19879856364E-02  4.26225527764E-02  4.32667101706E-02  4.39206027572E-02
  4.45843776646E-02  4.52581842451E-02  4.59421741080E-02  4.66365011538E-02
  4.73413216092E-02  4.80567940617E-02  4.87830794956E-02  4.95203413282E-02
  5.02687454464E-02  5.10284602445E-02  5.17996566614E-02  5.25825082196E-02
  5.33771910640E-02  5.41838840016E-02  5.50027685416E-02  5.58340289366E-02
  5.66778522237E-02  5.75344282666E-02  5.84039497987E-02  5.92866124658E-02
  6.01826148708E-02  6.10921586181E-02  6.20154483588E-02  6.29526918370E-02
  6.39040999365E-02  6.48698867281E-02  6.58502695178E-02  6.68454688960E-02
  6.78557087867E-02  6.88812164981E-02  6.99222227739E-02  7.09789618447E-02
  7.20516714814E-02  7.31405930482E-02  7.42459715570E-02  7.53680557226E-02
  7.65070980187E-02  7.76633547346E-02  7.88370860330E-02  8.00285560083E-02
  8.12380327463E-02  8.24657883845E-02  8.37120991729E-02  8.49772455369E-02
  8.62615121395E-02  8.75651879463E-02  8.88885662899E-02  9.02319449358E-02
  9.15956261500E-02  9.29799167665E-02  9.43851282566E-02  9.58115767987E-02
  9.72595833498E-02  9.87294737174E-02  1.00221578633E-01  1.01736233827E-01
  1.03273780103E-01  1.04834563414E-01  1.06418934945E-01  1.08027251185E-01
  1.09659874013E-01  1.11317170775E-01  1.12999514369E-01  1.14707283331E-01
  1.16440861916E-01  1.18200640186E-01  1.19987014099E-01  1.21800385596E-01
  1.23641162694E-01  1.25509759575E-01  1.27406596681E-01  1.29332100809E-01
  1.31286705206E-01  1.33270849665E-01  1.35284980627E-01  1.37329551281E-01
  1.39405021663E-01  1.41511858763E-01  1.43650536629E-01  1.45821536471E-01
  1.48025346774E-01  1.50262463404E-01  1.52533389723E-01  1.54838636698E-01
  1.57178723020E-01  1.59554175217E-01  1.61965527776E-01  1.64413323263E-01
  1.66898112441E-01  1.69420454399E-01  1.71980916674E-01  1.74580075380E-01
  1.77218515340E-01  1.79896830213E-01  1.82615622632E-01  1.85375504337E-01
  1.88177096312E-01  1.91021028928E-01  1.93907942081E-01  1.96838485339E-01
  1.99813318087E-01  2.02833109675E-01  2.05898539567E-01  2.09010297500E-01
  2.12169083631E-01  2.15375608702E-01  2.18630594193E-01  2.21934772490E-01
  2.25288887047E-01  2.28693692554E-01  2.32149955107E-01  2.35658452379E-01
  2.39219973797E-01  2.42835320718E-01  2.46505306611E-01  2.50230757238E-01
  2.54012510841E-01  2.57851418331E-01  2.61748343477E-01  2.65704163105E-01
  2.69719767291E-01  2.73796059562E-01  2.77933957102E-01  2.82134390954E-01
  2.86398306235E-01  2.90726662343E-01  2.95120433177E-01  2.99580607353E-01
  3.04108188429E-01  3.08704195131E-01  3.13369661579E-01  3.18105637523E-01
  3.22913188578E-01  3.27793396462E-01  3.32747359244E-01  3.37776191584E-01
  3.42881024994E-01  3.48063008080E-01  3.53323306811E-01  3.58663104777E-01
  3.64083603455E-01  3.69586022480E-01  3.75171599918E-01  3.80841592550E-01
  3.86597276147E-01  3.92439945761E-01  3.98370916019E-01  4.04391521414E-01
  4.10503116607E-01  4.16707076733E-01  4.23004797710E-01  4.29397696551E-01
  4.35887211684E-01  4.42474803280E-01  4.49161953573E-01  4.55950167200E-01
  4.62840971538E-01  4.69835917048E-01  4.76936577621E-01  4.84144550936E-01
  4.91461458818E-01  4.98888947601E-01  5.06428688502E-01  5.14082377995E-01
  5.21851738191E-01  5.29738517230E-01  5.37744489671E-01  5.45871456890E-01
  5.54121247490E-01  5.62495717708E-01  5.70996751836E-01  5.79626262642E-01
  5.88386191802E-01  5.97278510338E-01  6.06305219058E-01  6.15468349010E-01
  6.24769961938E-01  6.34212150743E-01  6.43797039957E-01  6.53526786221E-01
  6.63403578769E-01  6.73429639922E-01  6.83607225584E-01  6.93938625756E-01
  7.04426165046E-01  7.15072203196E-01  7.25879135607E-01  7.36849393887E-01
  7.47985446389E-01  7.59289798772E-01  7.70764994563E-01  7.82413615729E-01
  7.94238283260E-01  8.06241657755E-01  8.18426440025E-01  8.30795371696E-01
  8.43351235831E-01  8.56096857552E-01  8.69035104677E-01  8.82168888367E-01
  8.95501163779E-01  9.09034930731E-01  9.22773234377E-01  9.36719165894E-01
  9.50875863175E-01  9.65246511536E-01  9.79834344435E-01  9.94642644196E-01
  1.00967474275E+00  1.02493402237E+00  1.04042391648E+00  1.05614791036E+00
  1.07210954197E+00  1.08831240276E+00  1.10476013842E+00  1.12145644978E+00
  1.13840509357E+00  1.15560988330E+00  1.17307469014E+00  1.19080344373E+00
  1.20880013312E+00  1.22706880764E+00  1.24561357782E+00  1.26443861631E+00
  1.28354815882E+00  1.30294650508E+00  1.32263801980E+00  1.34262713366E+00
  1.36291834428E+00  1.38351621729E+00  1.40442538728E+00  1.42565055890E+00
  1.44719650792E+00  1.46906808225E+00  1.49127020311E+00  1.51380786604E+00
  1.53668614214E+00  1.55991017910E+00  1.58348520243E+00  1.60741651661E+00
  1.63170950629E+00  1.65636963750E+00  1.68140245886E+00  1.70681360286E+00
  1.73260878713E+00  1.75879381568E+00  1.78537458026E+00  1.81235706166E+00
  1.83974733104E+00  1.86755155133E+00  1.89577597860E+00  1.92442696346E+00
  1.95351095251E+00  1.98303448976E+00  2.01300421814E+00  2.04342688096E+00
  2.07430932345E+00  2.10565849429E+00  2.13748144717E+00  2.16978534239E+00
  2.20257744848E+00  2.23586514378E+00  2.26965591817E+00  2.30395737471E+00
  2.33877723139E+00  2.37412332281E+00  2.41000360199E+00  2.44642614215E+00
  2.48339913852E+00  2.52093091016E+00  2.55902990190E+00  2.59770468616E+00
  2.63696396494E+00  2.67681657173E+00  2.71727147354E+00  2.75833777290E+00
  2.80002470989E+00  2.84234166426E+00  2.88529815749E+00  2.92890385498E+00
  2.97316856819E+00  3.01810225688E+00  3.06371503130E+00  3.11001715454E+00
  3.15701904475E+00  3.20473127756E+00  3.25316458844E+00  3.30232987507E+00
  3.35223819985E+00  3.40290079238E+00  3.45432905193E+00  3.50653455010E+00
  3.55952903333E+00  3.61332442561E+00  3.66793283113E+00  3.72336653702E+00
  3.77963801608E+00  3.83675992964E+00  3.89474513037E+00  3.95360666519E+00
  4.01335777818E+00  4.07401191361E+00  4.13558271891E+00  4.19808404776E+00
  4.26152996324E+00  4.32593474093E+00  4.39131287220E+00  4.45767906738E+00
  4.52504825916E+00  4.59343560589E+00  4.66285649501E+00  4.73332654652E+00
  4.80486161646E+00  4.87747780054E+00  4.95119143770E+00  5.02601911383E+00
  5.10197766545E+00  5.17908418358E+00  5.25735601750E+00  5.33681077870E+00
  5.41746634484E+00  5.49934086376E+00  5.58245275758E+00  5.66682072682E+00
  5.75246375463E+00  5.83940111105E+00  5.92765235736E+00  6.01723735045E+00
  6.10817624734E+00  6.20048950965E+00  6.29419790826E+00  6.38932252795E+00
  6.48588477217E+00  6.58390636782E+00  6.68340937018E+00  6.78441616784E+00
  6.88694948777E+00  6.99103240038E+00  7.09668832478E+00  7.20394103399E+00
  7.31281466032E+00  7.42333370081E+00  7.53552302269E+00  7.64940786905E+00
  7.76501386444E+00  7.88236702072E+00  8.00149374283E+00  8.12242083479E+00
  8.24517550570E+00  8.36978537588E+00  8.49627848309E+00  8.62468328880E+00
  8.75502868463E+00  8.88734399885E+00  9.02165900297E+00  9.15800391842E+00
  9.29640942339E+00  9.43690665970E+00  9.57952723983E+00  9.72430325399E+00
  9.87126727741E+00  1.00204523776E+01  1.01718921219E+01  1.03256205848E+01
  1.04816723559E+01  1.06400825475E+01  1.08008868025E+01  1.09641213027E+01
  1.11298227764E+01  1.12980285072E+01  1.14687763420E+01  1.16421046999E+01
  1.18180525805E+01  1.19966595728E+01  1.21779658641E+01  1.23620122491E+01
  1.25488401390E+01  1.27384915709E+01  1.29310092171E+01  1.31264363949E+01
  1.33248170763E+01  1.35261958978E+01  1.37306181704E+01  1.39381298900E+01
  1.41487777477E+01  1.43626091400E+01  1.45796721800E+01  1.48000157077E+01
  1.50236893015E+01  1.52507432886E+01  1.54812287574E+01  1.57151975679E+01
  1.59527023642E+01  1.61937965859E+01  1.64385344800E+01  1.66869711138E+01
  1.69391623865E+01  1.71951650422E+01  1.74550366825E+01  1.77188357798E+01
  1.79866216898E+01  1.82584546657E+01  1.85343958708E+01  1.88145073932E+01
  1.90988522592E+01  1.93874944474E+01  1.96804989038E+01  1.99779315554E+01
  2.02798593259E+01  2.05863501502E+01  2.08974729903E+01  2.12132978499E+01
  2.15338957910E+01  2.18593389495E+01  2.21897005515E+01  2.25250549297E+01
  2.28654775404E+01  2.32110449799E+01  2.35618350025E+01  2.39179265373E+01
  2.42793997066E+01  2.46463358432E+01  2.50188175093E+01  2.53969285149E+01
  2.57807539366E+01  2.61703801367E+01  2.65658947827E+01  2.69673868672E+01
  2.73749467274E+01  2.77886660661E+01  2.82086379720E+01  2.86349569404E+01
  2.90677188949E+01  2.95070212088E+01  2.99529627269E+01  3.04056437880E+01
  3.08651662473E+01  3.13316334992E+01  3.18051505008E+01  3.22858237954E+01
  3.27737615366E+01  3.32690735124E+01  3.37718711701E+01  3.42822676413E+01
  3.48003777673E+01  3.53263181252E+01  3.58602070536E+01  3.64021646799E+01
  3.69523129469E+01  3.75107756402E+01  3.80776784162E+01  3.86531488305E+01
  3.92373163664E+01  3.98303124640E+01  4.04322705499E+01  4.10433260673E+01
  4.16636165062E+01  4.22932814346E+01  4.29324625297E+01  4.35813036101E+01
  4.42399506676E+01  4.49085519006E+01  4.55872577473E+01  4.62762209192E+01
  4.69755964362E+01  4.76855416605E+01  4.84062163328E+01  4.91377826081E+01
  4.98804050917E+01  5.06342508769E+01  5.13994895822E+01  5.21762933894E+01
  5.29648370828E+01  5.37652980880E+01  5.45778565121E+01  5.54026951842E+01
  5.62399996964E+01  5.70899584458E+01  5.79527626767E+01  5.88286065237E+01
  5.97176870553E+01  6.06202043185E+01  6.15363613834E+01  6.24663643892E+01
  6.34104225905E+01  6.43687484044E+01  6.53415574583E+01  6.63290686382E+01
  6.73315041385E+01  6.83490895112E+01  6.93820537174E+01  7.04306291784E+01
  7.14950518281E+01  7.25755611661E+01  7.36724003115E+01  7.47858160578E+01
  7.59160589282E+01  7.70633832322E+01  7.82280471225E+01  7.94103126534E+01
  8.06104458397E+01  8.18287167164E+01  8.30653993995E+01  8.43207721480E+01
  8.55951174259E+01  8.68887219663E+01  8.82018768358E+01  8.95348774996E+01
  9.08880238887E+01  9.22616204665E+01  9.36559762981E+01  9.50714051196E+01
  9.65082254083E+01  9.79667604548E+01  9.94473384358E+01
  </PP_R>
  <PP_RAB>
  7.59901637962E-07  7.71386080518E-07  7.83044088197E-07  7.94878284099E-07
  8.06891330968E-07  8.19085931791E-07  8.31464830404E-07  8.44030812111E-07
  8.56786704312E-07  8.69735377136E-07  8.82879744090E-07  8.96222762710E-07
  9.09767435233E-07  9.23516809267E-07  9.37473978479E-07  9.51642083291E-07
  9.66024311587E-07  9.80623899429E-07  9.95444131784E-07  1.01048834327E-06
  1.02575991889E-06  1.04126229483E-06  1.05699895917E-06  1.07297345274E-06
  1.08918936986E-06  1.10565035919E-06  1.12236012451E-06  1.13932242559E-06
  1.15654107903E-06  1.17401995909E-06  1.19176299859E-06  1.20977418979E-06
  1.22805758529E-06  1.24661729893E-06  1.26545750672E-06  1.28458244779E-06
  1.30399642533E-06  1.32370380756E-06  1.34370902874E-06  1.36401659011E-06
  1.38463106098E-06  1.40555707967E-06  1.42679935464E-06  1.44836266548E-06
  1.47025186403E-06  1.49247187545E-06  1.51502769934E-06  1.53792441086E-06
  1.56116716185E-06  1.58476118205E-06  1.60871178019E-06  1.63302434527E-06
  1.65770434772E-06  1.68275734064E-06  1.70818896106E-06  1.73400493121E-06
  1.76021105978E-06  1.78681324326E-06  1.81381746726E-06  1.84122980785E-06
  1.86905643290E-06  1.89730360355E-06  1.92597767550E-06  1.95508510056E-06
  1.98463242801E-06  2.01462630614E-06  2.04507348368E-06  2.07598081138E-06
  2.10735524352E-06  2.13920383949E-06  2.17153376534E-06  2.20435229545E-06
  2.23766681413E-06  2.27148481728E-06  2.30581391410E-06  2.34066182877E-06
  2.37603640223E-06  2.41194559391E-06  2.44839748352E-06  2.48540027289E-06
  2.52296228781E-06  2.56109197989E-06  2.59979792847E-06  2.63908884255E-06
  2.67897356276E-06  2.71946106331E-06  2.76056045408E-06  2.80228098260E-06
  2.84463203616E-06  2.88762314393E-06  2.93126397909E-06  2.97556436102E-06
  3.02053425747E-06  3.06618378688E-06  3.11252322057E-06  3.15956298512E-06
  3.20731366468E-06  3.25578600333E-06  3.30499090758E-06  3.35493944872E-06
  3.40564286539E-06  3.45711256607E-06  3.50936013166E-06  3.56239731809E-06
  3.61623605895E-06  3.67088846817E-06  3.72636684279E-06  3.78268366567E-06
  3.83985160833E-06  3.89788353380E-06  3.95679249951E-06  4.01659176023E-06
  4.07729477103E-06  4.13891519036E-06  4.20146688308E-06  4.26496392356E-06
  4.32942059892E-06  4.39485141218E-06  4.46127108555E-06  4.52869456373E-06
  4.59713701730E-06  4.66661384609E-06  4.73714068268E-06  4.80873339591E-06
  4.88140809445E-06  4.95518113039E-06  5.03006910300E-06  5.10608886237E-06
  5.18325751329E-06  5.26159241900E-06  5.34111120521E-06  5.42183176398E-06
  5.50377225776E-06  5.58695112352E-06  5.67138707686E-06  5.75709911621E-06
  5.84410652715E-06  5.93242888672E-06  6.02208606781E-06  6.11309824368E-06
  6.20548589244E-06  6.29926980170E-06  6.39447107325E-06  6.49111112776E-06
  6.58921170966E-06  6.68879489200E-06  6.78988308140E-06  6.89249902314E-06
  6.99666580624E-06  7.10240686867E-06  7.20974600260E-06  7.31870735980E-06
  7.42931545703E-06  7.54159518159E-06  7.65557179687E-06  7.77127094811E-06
  7.88871866809E-06  8.00794138306E-06  8.12896591862E-06  8.25181950581E-06
  8.37652978719E-06  8.50312482312E-06  8.63163309801E-06  8.76208352676E-06
  8.89450546127E-06  9.02892869703E-06  9.16538347984E-06  9.30390051260E-06
  9.44451096222E-06  9.58724646666E-06  9.73213914200E-06  9.87922158970E-06
  1.00285269039E-05  1.01800886790E-05  1.03339410170E-05  1.04901185354E-05
  1.06486563746E-05  1.08095902065E-05  1.09729562417E-05  1.11387912384E-05
  1.13071325102E-05  1.14780179344E-05  1.16514859611E-05  1.18275756213E-05
  1.20063265359E-05  1.21877789247E-05  1.23719736151E-05  1.25589520517E-05
  1.27487563056E-05  1.29414290834E-05  1.31370137374E-05  1.33355542748E-05
  1.35370953683E-05  1.37416823653E-05  1.39493612988E-05  1.41601788975E-05
  1.43741825961E-05  1.45914205465E-05  1.48119416280E-05  1.50357954590E-05
  1.52630324073E-05  1.54937036023E-05  1.57278609460E-05  1.59655571247E-05
  1.62068456212E-05  1.64517807262E-05  1.67004175514E-05  1.69528120410E-05
  1.72090209848E-05  1.74691020309E-05  1.77331136986E-05  1.80011153918E-05
  1.82731674119E-05  1.85493309717E-05  1.88296682093E-05  1.91142422016E-05
  1.94031169791E-05  1.96963575397E-05  1.99940298639E-05  2.02962009292E-05
  2.06029387253E-05  2.09143122695E-05  2.12303916222E-05  2.15512479026E-05
  2.18769533047E-05  2.22075811136E-05  2.25432057220E-05  2.28839026467E-05
  2.32297485460E-05  2.35808212368E-05  2.39371997119E-05  2.42989641578E-05
  2.46661959732E-05  2.50389777868E-05  2.54173934760E-05  2.58015281860E-05
  2.61914683486E-05  2.65873017022E-05  2.69891173108E-05  2.73970055846E-05
  2.78110583003E-05  2.82313686214E-05  2.86580311196E-05  2.90911417956E-05
  2.95307981013E-05  2.99770989612E-05  3.04301447948E-05  3.08900375393E-05
  3.13568806726E-05  3.18307792364E-05  3.23118398598E-05  3.28001707834E-05
  3.32958818839E-05  3.37990846982E-05  3.43098924492E-05  3.48284200708E-05
  3.53547842338E-05  3.58891033724E-05  3.64314977106E-05  3.69820892896E-05
  3.75410019946E-05  3.81083615835E-05  3.86842957145E-05  3.92689339753E-05
  3.98624079118E-05  4.04648510583E-05  4.10763989671E-05  4.16971892388E-05
  4.23273615541E-05  4.29670577043E-05  4.36164216237E-05  4.42755994220E-05
  4.49447394170E-05  4.56239921679E-05  4.63135105096E-05  4.70134495865E-05
  4.77239668879E-05  4.84452222832E-05  4.91773780579E-05  4.99205989501E-05
  5.06750521877E-05  5.14409075258E-05  5.22183372851E-05  5.30075163906E-05
  5.38086224110E-05  5.46218355984E-05  5.54473389292E-05  5.62853181452E-05
  5.71359617952E-05  5.79994612777E-05  5.88760108837E-05  5.97658078405E-05
  6.06690523562E-05  6.15859476646E-05  6.25167000711E-05  6.34615189988E-05
  6.44206170361E-05  6.53942099839E-05  6.63825169049E-05  6.73857601723E-05
  6.84041655199E-05  6.94379620934E-05  7.04873825013E-05  7.15526628676E-05
  7.26340428850E-05  7.37317658684E-05  7.48460788102E-05  7.59772324355E-05
  7.71254812586E-05  7.82910836404E-05  7.94743018463E-05  8.06754021054E-05
  8.18946546703E-05  8.31323338780E-05  8.43887182116E-05  8.56640903627E-05
  8.69587372956E-05  8.82729503113E-05  8.96070251132E-05  9.09612618737E-05
  9.23359653019E-05  9.37314447119E-05  9.51480140924E-05  9.65859921774E-05
  9.80457025181E-05  9.95274735556E-05  1.01031638694E-04  1.02558536378E-04
  1.04108510165E-04  1.05681908807E-04  1.07279086323E-04  1.08900402087E-04
  1.10546220900E-04  1.12216913080E-04  1.13912854538E-04  1.15634426869E-04
  1.17382017434E-04  1.19156019448E-04  1.20956832070E-04  1.22784860488E-04
  1.24640516019E-04  1.26524216191E-04  1.28436384846E-04  1.30377452229E-04
  1.32347855089E-04  1.34348036775E-04  1.36378447336E-04  1.38439543622E-04
  1.40531789390E-04  1.42655655404E-04  1.44811619542E-04  1.47000166905E-04
  1.49221789926E-04  1.51476988479E-04  1.53766269994E-04  1.56090149568E-04
  1.58449150085E-04  1.60843802328E-04  1.63274645106E-04  1.65742225367E-04
  1.68247098329E-04  1.70789827597E-04  1.73370985298E-04  1.75991152201E-04
  1.78650917856E-04  1.81350880721E-04  1.84091648299E-04  1.86873837275E-04
  1.89698073653E-04  1.92564992898E-04  1.95475240078E-04  1.98429470012E-04
  2.01428347414E-04  2.04472547044E-04  2.07562753860E-04  2.10699663171E-04
  2.13883980795E-04  2.17116423217E-04  2.20397717750E-04  2.23728602699E-04
  2.27109827528E-04  2.30542153027E-04  2.34026351482E-04  2.37563206854E-04
  2.41153514949E-04  2.44798083603E-04  2.48497732858E-04  2.52253295152E-04
  2.56065615501E-04  2.59935551694E-04  2.63863974483E-04  2.67851767779E-04
  2.71899828853E-04  2.76009068535E-04  2.80180411422E-04  2.84414796084E-04
  2.88713175275E-04  2.93076516148E-04  2.97505800474E-04  3.02002024860E-04
  3.06566200976E-04  3.11199355781E-04  3.15902531753E-04  3.20676787127E-04
  3.25523196132E-04  3.30442849229E-04  3.35436853361E-04  3.40506332201E-04
  3.45652426401E-04  3.50876293856E-04  3.56179109957E-04  3.61562067861E-04
  3.67026378755E-04  3.72573272133E-04  3.78203996069E-04  3.83919817499E-04
  3.89722022508E-04  3.95611916617E-04  4.01590825075E-04  4.07660093164E-04
  4.13821086493E-04  4.20075191312E-04  4.26423814822E-04  4.32868385489E-04
  4.39410353369E-04  4.46051190432E-04  4.52792390895E-04  4.59635471557E-04
  4.66581972138E-04  4.73633455631E-04  4.80791508650E-04  4.88057741787E-04
  4.95433789975E-04  5.02921312856E-04  5.10521995154E-04  5.18237547054E-04
  5.26069704589E-04  5.34020230027E-04  5.42090912269E-04  5.50283567254E-04
  5.58600038363E-04  5.67042196837E-04  5.75611942198E-04  5.84311202674E-04
  5.93141935636E-04  6.02106128035E-04  6.11205796854E-04  6.20442989555E-04
  6.29819784546E-04  6.39338291647E-04  6.49000652560E-04  6.58809041357E-04
  6.68765664969E-04  6.78872763676E-04  6.89132611619E-04  6.99547517308E-04
  7.10119824139E-04  7.20851910926E-04  7.31746192434E-04  7.42805119922E-04
  7.54031181697E-04  7.65426903668E-04  7.76994849922E-04  7.88737623295E-04
  8.00657865960E-04  8.12758260024E-04  8.25041528124E-04  8.37510434050E-04
  8.50167783356E-04  8.63016424000E-04  8.76059246980E-04  8.89299186987E-04
  9.02739223062E-04  9.16382379272E-04  9.30231725382E-04  9.44290377556E-04
  9.58561499048E-04  9.73048300921E-04  9.87754042767E-04  1.00268203344E-03
  1.01783563180E-03  1.03321824747E-03  1.04883334161E-03  1.06468442767E-03
  1.08077507222E-03  1.09710889572E-03  1.11368957335E-03  1.13052083584E-03
  1.14760647028E-03  1.16495032102E-03  1.18255629049E-03  1.20042834012E-03
  1.21857049120E-03  1.23698682577E-03  1.25568148759E-03  1.27465868305E-03
  1.29392268209E-03  1.31347781919E-03  1.33332849435E-03  1.35347917404E-03
  1.37393439225E-03  1.39469875150E-03  1.41577692385E-03  1.43717365198E-03
  1.45889375025E-03  1.48094210576E-03  1.50332367950E-03  1.52604350740E-03
  1.54910670154E-03  1.57251845122E-03  1.59628402418E-03  1.62040876778E-03
  1.64489811019E-03  1.66975756162E-03  1.69499271554E-03  1.72060924997E-03
  1.74661292875E-03  1.77300960280E-03  1.79980521149E-03  1.82700578394E-03
  1.85461744041E-03  1.88264639362E-03  1.91109895022E-03  1.93998151214E-03