<PP_INFO>
Generated using Vanderbilt code, version   7  3  4                              
Author: unknown    Generation date:    4    3    5                              
Automatically converted from original format                                    
    1        The Pseudo was generated with a Scalar-Relativistic Calculation
  2.40000000000E+00    Local Potential cutoff radius
nl pn  l   occ               Rcut            Rcut US             E pseu
6S  6  0  1.00     10.00000000000      2.40000000000     -0.52263384227
6P  6  1  0.50     10.00000000000      2.60000000000     -0.11216613792
5D  5  2  9.50     10.00000000000      2.00000000000     -0.66626945942
</PP_INFO>


<PP_HEADER>
   0                   Version Number
  Au                   Element
   US                  Ultrasoft pseudopotential
    F                  Nonlinear Core Correction
 SLA  PW   GGX  GGC    PW91 Exchange-Correlation functional
   11.00000000000      Z valence
  -66.61794024772      Total energy
  0.0000000  0.0000000 Suggested cutoff for wfc and rho
    2                  Max angular momentum component
  895                  Number of points in mesh
    3    6             Number of Wavefunctions, Number of Projectors
 Wavefunctions         nl  l   occ
                       6S  0  1.00
                       6P  1  0.50
                       5D  2  9.50
</PP_HEADER>


<PP_MESH>
  <PP_R>
  0.00000000000E+00  5.36339355442E-07  1.08184668364E-06  1.63667869830E-06
  2.20099479192E-06  2.77495708159E-06  3.35873045558E-06  3.95248262067E-06
  4.55638415037E-06  5.17060853392E-06  5.79533222607E-06  6.43073469788E-06
  7.07699848816E-06  7.73430925600E-06  8.40285583407E-06  9.08283028285E-06
  9.77442794586E-06  1.04778475057E-05  1.11932910412E-05  1.19209640855E-05
  1.26610756850E-05  1.34138384593E-05  1.41794686626E-05  1.49581862458E-05
  1.57502149193E-05  1.65557822175E-05  1.73751195645E-05  1.82084623400E-05
  1.90560499471E-05  1.99181258815E-05  2.07949378009E-05  2.16867375964E-05
  2.25937814647E-05  2.35163299821E-05  2.44546481789E-05  2.54090056157E-05
  2.63796764610E-05  2.73669395697E-05  2.83710785634E-05  2.93923819118E-05
  3.04311430157E-05  3.14876602908E-05  3.25622372543E-05  3.36551826114E-05
  3.47668103439E-05  3.58974398011E-05  3.70473957910E-05  3.82170086737E-05
  3.94066144562E-05  4.06165548894E-05  4.18471775657E-05  4.30988360191E-05
  4.43718898270E-05  4.56667047130E-05  4.69836526524E-05  4.83231119789E-05
  4.96854674933E-05  5.10711105738E-05  5.24804392890E-05  5.39138585116E-05
  5.53717800354E-05  5.68546226930E-05  5.83628124763E-05  5.98967826590E-05
  6.14569739213E-05  6.30438344757E-05  6.46578201967E-05  6.62993947511E-05
  6.79690297315E-05  6.96672047917E-05  7.13944077845E-05  7.31511349020E-05
  7.49378908179E-05  7.67551888325E-05  7.86035510205E-05  8.04835083805E-05
  8.23956009878E-05  8.43403781497E-05  8.63183985630E-05  8.83302304748E-05
  9.03764518453E-05  9.24576505145E-05  9.45744243703E-05  9.67273815210E-05
  9.89171404695E-05  1.01144330291E-04  1.03409590815E-04  1.05713572805E-04
  1.08056938152E-04  1.10440360060E-04  1.12864523238E-04  1.15330124103E-04
  1.17837870974E-04  1.20388484278E-04  1.22982696756E-04  1.25621253676E-04
  1.28304913045E-04  1.31034445824E-04  1.33810636158E-04  1.36634281590E-04
  1.39506193301E-04  1.42427196334E-04  1.45398129838E-04  1.48419847303E-04
  1.51493216811E-04  1.54619121282E-04  1.57798458727E-04  1.61032142509E-04
  1.64321101602E-04  1.67666280861E-04  1.71068641290E-04  1.74529160323E-04
  1.78048832099E-04  1.81628667751E-04  1.85269695699E-04  1.88972961937E-04
  1.92739530344E-04  1.96570482980E-04  2.00466920406E-04  2.04429961991E-04
  2.08460746242E-04  2.12560431124E-04  2.16730194397E-04  2.20971233954E-04
  2.25284768163E-04  2.29672036220E-04  2.34134298501E-04  2.38672836929E-04
  2.43288955336E-04  2.47983979846E-04  2.52759259247E-04  2.57616165385E-04
  2.62556093555E-04  2.67580462903E-04  2.72690716833E-04  2.77888323422E-04
  2.83174775841E-04  2.88551592787E-04  2.94020318915E-04  2.99582525283E-04
  3.05239809807E-04  3.10993797714E-04  3.16846142015E-04  3.22798523973E-04
  3.28852653594E-04  3.35010270111E-04  3.41273142489E-04  3.47643069930E-04
  3.54121882391E-04  3.60711441108E-04  3.67413639136E-04  3.74230401885E-04
  3.81163687679E-04  3.88215488318E-04  3.95387829648E-04  4.02682772143E-04
  4.10102411498E-04  4.17648879234E-04  4.25324343303E-04  4.33131008719E-04
  4.41071118185E-04  4.49146952741E-04  4.57360832418E-04  4.65715116905E-04
  4.74212206225E-04  4.82854541429E-04  4.91644605292E-04  5.00584923029E-04
  5.09678063020E-04  5.18926637550E-04  5.28333303553E-04  5.37900763383E-04
  5.47631765587E-04  5.57529105693E-04  5.67595627015E-04  5.77834221470E-04
  5.88247830409E-04  5.98839445458E-04  6.09612109385E-04  6.20568916968E-04
  6.31713015884E-04  6.43047607619E-04  6.54575948381E-04  6.66301350039E-04
  6.78227181074E-04  6.90356867547E-04  7.02693894082E-04  7.15241804867E-04
  7.28004204676E-04  7.40984759897E-04  7.54187199595E-04  7.67615316574E-04
  7.81272968472E-04  7.95164078868E-04  8.09292638410E-04  8.23662705959E-04
  8.38278409758E-04  8.53143948616E-04  8.68263593113E-04  8.83641686833E-04
  8.99282647602E-04  9.15190968767E-04  9.31371220481E-04  9.47828051016E-04
  9.64566188102E-04  9.81590440281E-04  9.98905698292E-04  1.01651693647E-03
  1.03442921419E-03  1.05264767730E-03  1.07117755961E-03  1.09002418440E-03
  1.10919296593E-03  1.12868941104E-03  1.14851912066E-03  1.16868779149E-03
  1.18920121761E-03  1.21006529211E-03  1.23128600885E-03  1.25286946413E-03
  1.27482185846E-03  1.29714949832E-03  1.31985879803E-03  1.34295628153E-03
  1.36644858427E-03  1.39034245514E-03  1.41464475838E-03  1.43936247558E-03
  1.46450270767E-03  1.49007267693E-03  1.51607972913E-03  1.54253133559E-03
  1.56943509535E-03  1.59679873734E-03  1.62463012260E-03  1.65293724654E-03
  1.68172824127E-03  1.71101137786E-03  1.74079506881E-03  1.77108787039E-03
  1.80189848514E-03  1.83323576434E-03  1.86510871060E-03  1.89752648039E-03
  1.93049838672E-03  1.96403390176E-03  1.99814265964E-03  2.03283445912E-03
  2.06811926651E-03  2.10400721843E-03  2.14050862480E-03  2.17763397177E-03
  2.21539392474E-03  2.25379933141E-03  2.29286122490E-03  2.33259082695E-03
  2.37299955109E-03  2.41409900598E-03  2.45590099870E-03  2.49841753814E-03
  2.54166083848E-03  2.58564332269E-03  2.63037762609E-03  2.67587659998E-03
  2.72215331532E-03  2.76922106652E-03  2.81709337525E-03  2.86578399428E-03
  2.91530691149E-03  2.96567635386E-03  3.01690679154E-03  3.06901294206E-03
  3.12200977451E-03  3.17591251384E-03  3.23073664527E-03  3.28649791872E-03
  3.34321235331E-03  3.40089624202E-03  3.45956615629E-03  3.51923895087E-03
  3.57993176860E-03  3.64166204533E-03  3.70444751500E-03  3.76830621465E-03
  3.83325648964E-03  3.89931699895E-03  3.96650672046E-03  4.03484495649E-03
  4.10435133929E-03  4.17504583670E-03  4.24694875789E-03  4.32008075916E-03
  4.39446284993E-03  4.47011639873E-03  4.54706313937E-03  4.62532517715E-03
  4.70492499524E-03  4.78588546113E-03  4.86822983320E-03  4.95198176739E-03
  5.03716532400E-03  5.12380497464E-03  5.21192560918E-03  5.30155254299E-03
  5.39271152415E-03  5.48542874087E-03  5.57973082901E-03  5.67564487974E-03
  5.77319844731E-03  5.87241955697E-03  5.97333671302E-03  6.07597890701E-03
  6.18037562607E-03  6.28655686133E-03  6.39455311663E-03  6.50439541719E-03
  6.61611531858E-03  6.72974491577E-03  6.84531685233E-03  6.96286432986E-03
  7.08242111747E-03  7.20402156150E-03  7.32770059542E-03  7.45349374982E-03
  7.58143716263E-03  7.71156758952E-03  7.84392241445E-03  7.97853966040E-03
  8.11545800029E-03  8.25471676812E-03  8.39635597023E-03  8.54041629683E-03
  8.68693913366E-03  8.83596657389E-03  8.98754143024E-03  9.14170724721E-03
  9.29850831366E-03  9.45798967551E-03  9.62019714867E-03  9.78517733221E-03
  9.95297762173E-03  1.01236462230E-02  1.02972321659E-02  1.04737853181E-02
  1.06533564001E-02  1.08359969992E-02  1.10217595844E-02  1.12106975217E-02
  1.14028650894E-02  1.15983174935E-02  1.17971108836E-02  1.19993023693E-02
  1.22049500363E-02  1.24141129631E-02  1.26268512383E-02  1.28432259773E-02
  1.30632993406E-02  1.32871345509E-02  1.35147959117E-02  1.37463488257E-02
  1.39818598136E-02  1.42213965332E-02  1.44650277987E-02  1.47128236007E-02
  1.49648551261E-02  1.52211947787E-02  1.54819161999E-02  1.57470942899E-02
  1.60168052293E-02  1.62911265008E-02  1.65701369116E-02  1.68539166159E-02
  1.71425471383E-02  1.74361113966E-02  1.77346937262E-02  1.80383799040E-02
  1.83472571732E-02  1.86614142683E-02  1.89809414404E-02  1.93059304836E-02
  1.96364747610E-02  1.99726692314E-02  2.03146104772E-02  2.06623967313E-02
  2.10161279060E-02  2.13759056216E-02  2.17418332350E-02  2.21140158703E-02
  2.24925604484E-02  2.28775757177E-02  2.32691722857E-02  2.36674626505E-02
  2.40725612332E-02  2.44845844108E-02  2.49036505497E-02  2.53298800393E-02
  2.57633953272E-02  2.62043209539E-02  2.66527835889E-02  2.71089120667E-02
  2.75728374243E-02  2.80446929384E-02  2.85246141640E-02  2.90127389731E-02
  2.95092075947E-02  3.00141626544E-02  3.05277492162E-02  3.10501148234E-02
  3.15814095417E-02  3.21217860017E-02  3.26713994432E-02  3.32304077594E-02
  3.37989715426E-02  3.43772541302E-02  3.49654216515E-02  3.55636430758E-02
  3.61720902604E-02  3.67909380005E-02  3.74203640790E-02  3.80605493180E-02
  3.87116776301E-02  3.93739360720E-02  4.00475148977E-02  4.07326076134E-02
  4.14294110329E-02  4.21381253344E-02  4.28589541178E-02  4.35921044633E-02
  4.43377869907E-02  4.50962159203E-02  4.58676091339E-02  4.66521882379E-02
  4.74501786268E-02  4.82618095476E-02  4.90873141664E-02  4.99269296345E-02
  5.07808971572E-02  5.16494620630E-02  5.25328738736E-02  5.34313863763E-02
  5.43452576962E-02  5.52747503708E-02  5.62201314256E-02  5.71816724501E-02
  5.81596496765E-02  5.91543440586E-02  6.01660413531E-02  6.11950322008E-02
  6.22416122110E-02  6.33060820459E-02  6.43887475070E-02  6.54899196232E-02
  6.66099147399E-02  6.77490546100E-02  6.89076664864E-02  7.00860832159E-02
  7.12846433347E-02  7.25036911661E-02  7.37435769188E-02  7.50046567880E-02
  7.62872930577E-02  7.75918542043E-02  7.89187150030E-02  8.02682566353E-02
  8.16408667984E-02  8.30369398165E-02  8.44568767546E-02  8.59010855329E-02
  8.73699810447E-02  8.88639852753E-02  9.03835274231E-02  9.19290440233E-02
  9.35009790728E-02  9.50997841582E-02  9.67259185852E-02  9.83798495108E-02
  1.00062052077E-01  1.01773009549E-01  1.03513213451E-01  1.05283163710E-01
  1.07083368798E-01  1.08914345880E-01  1.10776620960E-01  1.12670729033E-01
  1.14597214240E-01  1.16556630024E-01  1.18549539285E-01  1.20576514549E-01
  1.22638138127E-01  1.24735002282E-01  1.26867709404E-01  1.29036872177E-01
  1.31243113760E-01  1.33487067965E-01  1.35769379435E-01  1.38090703834E-01
  1.40451708034E-01  1.42853070306E-01  1.45295480514E-01  1.47779640317E-01
  1.50306263364E-01  1.52876075506E-01  1.55489815001E-01  1.58148232724E-01
  1.60852092388E-01  1.63602170759E-01  1.66399257882E-01  1.69244157306E-01
  1.72137686315E-01  1.75080676164E-01  1.78073972317E-01  1.81118434691E-01
  1.84214937900E-01  1.87364371510E-01  1.90567640292E-01  1.93825664484E-01
  1.97139380051E-01  2.00509738962E-01  2.03937709455E-01  2.07424276319E-01
  2.10970441178E-01  2.14577222776E-01  2.18245657272E-01  2.21976798536E-01
  2.25771718453E-01  2.29631507229E-01  2.33557273707E-01  2.37550145685E-01
  2.41611270237E-01  2.45741814045E-01  2.49942963735E-01  2.54215926215E-01
  2.58561929026E-01  2.62982220690E-01  2.67478071070E-01  2.72050771738E-01
  2.76701636343E-01  2.81432000987E-01  2.86243224613E-01  2.91136689392E-01
  2.96113801122E-01  3.01175989631E-01  3.06324709188E-01  3.11561438920E-01
  3.16887683239E-01  3.22304972270E-01  3.27814862297E-01  3.33418936205E-01
  3.39118803934E-01  3.44916102948E-01  3.50812498698E-01  3.56809685104E-01
  3.62909385042E-01  3.69113350837E-01  3.75423364769E-01  3.81841239583E-01
  3.88368819011E-01  3.95007978298E-01  4.01760624748E-01  4.08628698265E-01
  4.15614171913E-01  4.22719052485E-01  4.29945381074E-01  4.37295233665E-01
  4.44770721729E-01  4.52373992828E-01  4.60107231236E-01  4.67972658561E-01
  4.75972534390E-01  4.84109156931E-01  4.92384863678E-01  5.00802032083E-01
  5.09363080235E-01  5.18070467557E-01  5.26926695513E-01  5.35934308326E-01
  5.45095893709E-01  5.54414083608E-01  5.63891554959E-01  5.73531030456E-01
  5.83335279333E-01  5.93307118162E-01  6.03449411659E-01  6.13765073508E-01
  6.24257067200E-01  6.34928406882E-01  6.45782158222E-01  6.56821439294E-01
  6.68049421469E-01  6.79469330330E-01  6.91084446595E-01  7.02898107062E-01
  7.14913705567E-01  7.27134693960E-01  7.39564583093E-01  7.52206943834E-01
  7.65065408088E-01  7.78143669843E-01  7.91445486231E-01  8.04974678605E-01
  8.18735133642E-01  8.32730804453E-01  8.46965711724E-01  8.61443944868E-01
  8.76169663202E-01  8.91147097140E-01  9.06380549408E-01  9.21874396282E-01
  9.37633088846E-01  9.53661154265E-01  9.69963197095E-01  9.86543900594E-01
  1.00340802808E+00  1.02056042429E+00  1.03800601677E+00  1.05574981732E+00
  1.07379692336E+00  1.09215251950E+00  1.11082187894E+00  1.12981036502E+00
  1.14912343277E+00  1.16876663046E+00  1.18874560120E+00  1.20906608456E+00
  1.22973391823E+00  1.25075503967E+00  1.27213548784E+00  1.29388140494E+00
  1.31599903813E+00  1.33849474140E+00  1.36137497733E+00  1.38464631895E+00
  1.40831545168E+00  1.43238917520E+00  1.45687440543E+00  1.48177817650E+00
  1.50710764277E+00  1.53287008093E+00  1.55907289200E+00  1.58572360357E+00
  1.61282987185E+00  1.64039948397E+00  1.66844036012E+00  1.69696055592E+00
  1.72596826466E+00  1.75547181970E+00  1.78547969683E+00  1.81600051675E+00
  1.84704304749E+00  1.87861620697E+00  1.91072906554E+00  1.94339084862E+00
  1.97661093929E+00  2.01039888105E+00  2.04476438052E+00  2.07971731025E+00
  2.11526771152E+00  2.15142579730E+00  2.18820195508E+00  2.22560674996E+00
  2.26365092760E+00  2.30234541737E+00  2.34170133543E+00  2.38172998799E+00
  2.42244287450E+00  2.46385169098E+00  2.50596833339E+00  2.54880490103E+00
  2.59237370001E+00  2.63668724679E+00  2.68175827182E+00  2.72759972312E+00
  2.77422477005E+00  2.82164680709E+00  2.86987945767E+00  2.91893657809E+00
  2.96883226153E+00  3.01958084203E+00  3.07119689870E+00  3.12369525982E+00
  3.17709100715E+00  3.23139948027E+00  3.28663628094E+00  3.34281727762E+00
  3.39995861004E+00  3.45807669379E+00  3.51718822507E+00  3.57731018549E+00
  3.63845984690E+00  3.70065477644E+00  3.76391284150E+00  3.82825221490E+00
  3.89369138009E+00  3.96024913648E+00  4.02794460483E+00  4.09679723274E+00
  4.16682680023E+00  4.23805342544E+00  4.31049757040E+00  4.38418004691E+00
  4.45912202253E+00  4.53534502664E+00  4.61287095662E+00  4.69172208418E+00
  4.77192106171E+00  4.85349092884E+00  4.93645511901E+00  5.02083746623E+00
  5.10666221191E+00  5.19395401183E+00  5.28273794325E+00  5.37303951207E+00
  5.46488466018E+00  5.55829977292E+00  5.65331168664E+00  5.74994769642E+00
  5.84823556392E+00  5.94820352535E+00  6.04988029956E+00  6.15329509633E+00
  6.25847762472E+00  6.36545810164E+00  6.47426726050E+00  6.58493636009E+00
  6.69749719347E+00  6.81198209722E+00  6.92842396062E+00  7.04685623516E+00
  7.16731294415E+00  7.28982869247E+00  7.41443867652E+00  7.54117869435E+00
  7.67008515590E+00  7.80119509350E+00  7.93454617251E+00  8.07017670211E+00
  8.20812564632E+00  8.34843263521E+00  8.49113797626E+00  8.63628266596E+00
  8.78390840156E+00  8.93405759308E+00  9.08677337549E+00  9.24209962105E+00
  9.40008095202E+00  9.56076275335E+00  9.72419118583E+00  9.89041319928E+00
  1.00594765461E+01  1.02314297948E+01  1.04063223444E+01  1.05842044380E+01
  1.07651271777E+01  1.09491425392E+01  1.11363033865E+01  1.13266634872E+01
  1.15202775283E+01  1.17172011311E+01  1.19174908681E+01  1.21212042786E+01
  1.23283998856E+01  1.25391372123E+01  1.27534767995E+01  1.29714802228E+01
  1.31932101103E+01  1.34187301609E+01  1.36481051620E+01  1.38814010086E+01
  1.41186847221E+01  1.43600244695E+01  1.46054895831E+01  1.48551505802E+01
  1.51090791837E+01  1.53673483423E+01  1.56300322516E+01  1.58972063758E+01
  1.61689474688E+01  1.64453335965E+01  1.67264441594E+01  1.70123599149E+01
  1.73031630014E+01  1.75989369607E+01  1.78997667630E+01  1.82057388310E+01
  1.85169410645E+01  1.88334628659E+01  1.91553951657E+01  1.94828304488E+01
  1.98158627812E+01  2.01545878365E+01  2.04991029239E+01  2.08495070159E+01
  2.12059007768E+01  2.15683865917E+01  2.19370685956E+01  2.23120527040E+01
  2.26934466423E+01  2.30813599777E+01  2.34759041502E+01  2.38771925047E+01
  2.42853403235E+01  2.47004648598E+01  2.51226853706E+01  2.55521231518E+01
  2.59889015725E+01  2.64331461108E+01  2.68849843894E+01  2.73445462128E+01
  2.78119636043E+01  2.82873708437E+01  2.87709045063E+01  2.92627035021E+01
  2.97629091154E+01  3.02716650456E+01  3.07891174483E+01  3.13154149777E+01
  3.18507088289E+01  3.23951527814E+01  3.29489032434E+01  3.35121192968E+01
  3.40849627425E+01  3.46675981475E+01  3.52601928916E+01  3.58629172158E+01
  3.64759442712E+01  3.70994501685E+01  3.77336140290E+01  3.83786180356E+01
  3.90346474855E+01  3.97018908434E+01  4.03805397952E+01  4.10707893037E+01
  4.17728376642E+01  4.24868865617E+01  4.32131411285E+01  4.39518100036E+01
  4.47031053922E+01  4.54672431270E+01  4.62444427299E+01  4.70349274753E+01
  4.78389244543E+01  4.86566646395E+01  4.94883829519E+01  5.03343183282E+01
  5.11947137891E+01  5.20698165096E+01  5.29598778898E+01  5.38651536272E+01
  5.47859037898E+01  5.57223928915E+01  5.66748899674E+01  5.76436686515E+01
  5.86290072551E+01  5.96311888471E+01  6.06505013347E+01  6.16872375466E+01
  6.27416953173E+01  6.38141775719E+01  6.49049924139E+01  6.60144532133E+01
  6.71428786967E+01  6.82905930388E+01  6.94579259559E+01  7.06452128000E+01
  7.18527946557E+01  7.30810184380E+01  7.43302369916E+01  7.56008091931E+01
  7.68931000531E+01  7.82074808217E+01  7.95443290953E+01  8.09040289244E+01
  8.22869709244E+01  8.36935523879E+01  8.51241773985E+01  8.65792569470E+01
  8.80592090496E+01  8.95644588681E+01  9.10954388314E+01  9.26525887605E+01
  9.42363559945E+01  9.58471955190E+01  9.74855700971E+01  9.91519504021E+01
  1.00846815153E+02  1.02570651251E+02  1.04323953921E+02  1.06107226854E+02
  1.07920982349E+02  1.09765741462E+02  1.11642034159E+02  1.13550399460E+02
  1.15491385602E+02  1.17465550194E+02  1.19473460375E+02
  </PP_R>
  <PP_RAB>
  5.31806946292E-07  5.40897443842E-07  5.50143330760E-07  5.59547263212E-07
  5.69111942765E-07  5.78840117166E-07  5.88734581132E-07  5.98798177151E-07
  6.09033796298E-07  6.19444379070E-07  6.30032916225E-07  6.40802449646E-07
  6.51756073210E-07  6.62896933682E-07  6.74228231615E-07  6.85753222272E-07
  6.97475216561E-07  7.09397581982E-07  7.21523743601E-07  7.33857185030E-07
  7.46401449427E-07  7.59160140517E-07  7.72136923625E-07  7.85335526729E-07
  7.98759741534E-07  8.12413424555E-07  8.26300498233E-07  8.40424952054E-07
  8.54790843701E-07  8.69402300216E-07  8.84263519189E-07  8.99378769959E-07
  9.14752394846E-07  9.30388810395E-07  9.46292508646E-07  9.62468058422E-07
  9.78920106648E-07  9.95653379677E-07  1.01267268465E-06  1.02998291090E-06
  1.04758903130E-06  1.06549610376E-06  1.08370927264E-06  1.10223377021E-06
  1.12107491822E-06  1.14023812936E-06  1.15972890885E-06  1.17955285602E-06
  1.19971566589E-06  1.22022313086E-06  1.24108114232E-06  1.26229569238E-06
  1.28387287556E-06  1.30581889058E-06  1.32814004210E-06  1.35084274254E-06
  1.37393351397E-06  1.39741898992E-06  1.42130591729E-06  1.44560115835E-06
  1.47031169265E-06  1.49544461905E-06  1.52100715775E-06  1.54700665238E-06
  1.57345057208E-06  1.60034651368E-06  1.62770220386E-06  1.65552550139E-06
  1.68382439937E-06  1.71260702751E-06  1.74188165450E-06  1.77165669039E-06
  1.80194068897E-06  1.83274235023E-06  1.86407052291E-06  1.89593420698E-06
  1.92834255625E-06  1.96130488103E-06  1.99483065075E-06  2.02892949671E-06
  2.06361121486E-06  2.09888576857E-06  2.13476329155E-06  2.17125409072E-06
  2.20836864916E-06  2.24611762919E-06  2.28451187535E-06  2.32356241757E-06
  2.36328047430E-06  2.40367745578E-06  2.44476496728E-06  2.48655481245E-06
  2.52905899670E-06  2.57228973066E-06  2.61625943368E-06  2.66098073741E-06
  2.70646648942E-06  2.75272975687E-06  2.79978383032E-06  2.84764222748E-06
  2.89631869715E-06  2.94582722314E-06  2.99618202828E-06  3.04739757855E-06
  3.09948858716E-06  3.15247001887E-06  3.20635709421E-06  3.26116529390E-06
  3.31691036328E-06  3.37360831681E-06  3.43127544273E-06  3.48992830769E-06
  3.54958376152E-06  3.61025894208E-06  3.67197128017E-06  3.73473850455E-06
  3.79857864703E-06  3.86351004765E-06  3.92955135995E-06  3.99672155631E-06
  4.06503993344E-06  4.13452611788E-06  4.20520007166E-06  4.27708209805E-06
  4.35019284737E-06  4.42455332290E-06  4.50018488699E-06  4.57710926712E-06
  4.65534856216E-06  4.73492524876E-06  4.81586218777E-06  4.89818263078E-06
  4.98191022689E-06  5.06706902939E-06  5.15368350278E-06  5.24177852971E-06
  5.33137941818E-06  5.42251190879E-06  5.51520218214E-06  5.60947686635E-06
  5.70536304472E-06  5.80288826348E-06  5.90208053976E-06  6.00296836956E-06
  6.10558073602E-06  6.20994711767E-06  6.31609749696E-06  6.42406236884E-06
  6.53387274952E-06  6.64556018542E-06  6.75915676215E-06  6.87469511383E-06
  6.99220843238E-06  7.11173047711E-06  7.23329558439E-06  7.35693867752E-06
  7.48269527677E-06  7.61060150958E-06  7.74069412092E-06  7.87301048390E-06
  8.00758861044E-06  8.14446716224E-06  8.28368546185E-06  8.42528350400E-06
  8.56930196706E-06  8.71578222475E-06  8.86476635802E-06  9.01629716712E-06
  9.17041818393E-06  9.32717368442E-06  9.48660870143E-06  9.64876903754E-06
  9.81370127828E-06  9.98145280550E-06  1.01520718110E-05  1.03256073102E-05
  1.05021091566E-05  1.06816280558E-05  1.08642155799E-05  1.10499241830E-05
  1.12388072155E-05  1.14309189398E-05  1.16263145460E-05  1.18250501673E-05
  1.20271828967E-05  1.22327708030E-05  1.24418729477E-05  1.26545494017E-05
  1.28708612628E-05  1.30908706734E-05  1.33146408377E-05  1.35422360408E-05
  1.37737216661E-05  1.40091642152E-05  1.42486313261E-05  1.44921917931E-05
  1.47399155863E-05  1.49918738720E-05  1.52481390330E-05  1.55087846892E-05
  1.57738857192E-05  1.60435182813E-05  1.63177598358E-05  1.65966891669E-05
  1.68803864056E-05  1.71689330528E-05  1.74624120021E-05  1.77609075645E-05
  1.80645054919E-05  1.83732930023E-05  1.86873588041E-05  1.90067931225E-05
  1.93316877248E-05  1.96621359469E-05  1.99982327202E-05  2.03400745987E-05
  2.06877597871E-05  2.10413881686E-05  2.14010613337E-05  2.17668826095E-05
  2.21389570896E-05  2.25173916636E-05  2.29022950485E-05  2.32937778196E-05
  2.36919524423E-05  2.40969333045E-05  2.45088367494E-05  2.49277811087E-05
  2.53538867372E-05  2.57872760468E-05  2.62280735417E-05  2.66764058547E-05
  2.71324017828E-05  2.75961923249E-05  2.80679107191E-05  2.85476924809E-05
  2.90356754423E-05  2.95319997914E-05  3.00368081126E-05  3.05502454275E-05
  3.10724592367E-05  3.16035995623E-05  3.21438189904E-05  3.26932727156E-05
  3.32521185855E-05  3.38205171457E-05  3.43986316859E-05  3.49866282874E-05
  3.55846758701E-05  3.61929462417E-05  3.68116141463E-05  3.74408573153E-05
  3.80808565182E-05  3.87317956142E-05  3.93938616056E-05  4.00672446911E-05
  4.07521383208E-05  4.14487392511E-05  4.21572476022E-05  4.28778669147E-05
  4.36108042087E-05  4.43562700428E-05  4.51144785750E-05  4.58856476238E-05
  4.66699987313E-05  4.74677572264E-05  4.82791522895E-05  4.91044170189E-05
  4.99437884970E-05  5.07975078591E-05  5.16658203623E-05  5.25489754559E-05
  5.34472268532E-05  5.43608326046E-05  5.52900551713E-05  5.62351615009E-05
  5.71964231042E-05  5.81741161330E-05  5.91685214597E-05  6.01799247577E-05
  6.12086165835E-05  6.22548924604E-05  6.33190529633E-05  6.44014038047E-05
  6.55022559233E-05  6.66219255725E-05  6.77607344117E-05  6.89190095987E-05
  7.00970838834E-05  7.12952957040E-05  7.25139892834E-05  7.37535147287E-05
  7.50142281315E-05  7.62964916706E-05  7.76006737153E-05  7.89271489319E-05
  8.02762983911E-05  8.16485096774E-05  8.30441770005E-05  8.44637013088E-05
  8.59074904040E-05  8.73759590588E-05  8.88695291358E-05  9.03886297089E-05
  9.19336971861E-05  9.35051754356E-05  9.51035159126E-05  9.67291777894E-05
  9.83826280871E-05  1.00064341810E-04  1.01774802082E-04  1.03514500286E-04
  1.05283936202E-04  1.07083618155E-04  1.08914063160E-04  1.10775797068E-04
  1.12669354719E-04  1.14595280095E-04  1.16554126477E-04  1.18546456605E-04
  1.20572842836E-04  1.22633867311E-04  1.24730122123E-04  1.26862209486E-04
  1.29030741906E-04  1.31236342362E-04  1.33479644479E-04  1.35761292716E-04
  1.38081942544E-04  1.40442260643E-04  1.42842925086E-04  1.45284625537E-04
  1.47768063449E-04  1.50293952267E-04  1.52863017628E-04  1.55475997577E-04
  1.58133642771E-04  1.60836716701E-04  1.63585995907E-04  1.66382270204E-04
  1.69226342908E-04  1.72119031065E-04  1.75061165690E-04  1.78053591999E-04
  1.81097169661E-04  1.84192773034E-04  1.87341291427E-04  1.90543629348E-04
  1.93800706767E-04  1.97113459378E-04  2.00482838872E-04  2.03909813206E-04
  2.07395366883E-04  2.10940501236E-04  2.14546234714E-04  2.18213603172E-04
  2.21943660177E-04  2.25737477300E-04  2.29596144432E-04  2.33520770094E-04
  2.37512481754E-04  2.41572426154E-04  2.45701769637E-04  2.49901698484E-04
  2.54173419253E-04  2.58518159128E-04  2.62937166267E-04  2.67431710165E-04
  2.72003082019E-04  2.76652595095E-04  2.81381585108E-04  2.86191410606E-04
  2.91083453357E-04  2.96059118752E-04  3.01119836203E-04  3.06267059556E-04
  3.11502267509E-04  3.16826964035E-04  3.22242678817E-04  3.27750967686E-04
  3.33353413065E-04  3.39051624428E-04  3.44847238763E-04  3.50741921036E-04
  3.56737364676E-04  3.62835292058E-04  3.69037454997E-04  3.75345635257E-04
  3.81761645054E-04  3.88287327585E-04  3.94924557551E-04  4.01675241700E-04
  4.08541319373E-04  4.15524763062E-04  4.22627578975E-04  4.29851807613E-04
  4.37199524357E-04  4.44672840064E-04  4.52273901673E-04  4.60004892823E-04
  4.67868034477E-04  4.75865585563E-04  4.83999843624E-04  4.92273145474E-04
  5.00687867873E-04  5.09246428207E-04  5.17951285186E-04  5.26804939547E-04
  5.35809934772E-04  5.44968857823E-04  5.54284339882E-04  5.63759057105E-04
  5.73395731397E-04  5.83197131186E-04  5.93166072226E-04  6.03305418400E-04
  6.13618082546E-04  6.24107027294E-04  6.34775265913E-04  6.45625863183E-04
  6.56661936270E-04  6.67886655624E-04  6.79303245890E-04  6.90914986834E-04
  7.02725214284E-04  7.14737321089E-04  7.26954758096E-04  7.39381035138E-04
  7.52019722043E-04  7.64874449663E-04  7.77948910910E-04  7.91246861826E-04
  8.04772122654E-04  8.18528578940E-04  8.32520182648E-04  8.46750953294E-04
  8.61224979103E-04  8.75946418184E-04  8.90919499720E-04  9.06148525188E-04
  9.21637869593E-04  9.37391982723E-04  9.53415390431E-04  9.69712695931E-04
  9.86288581124E-04  1.00314780794E-03  1.02029521971E-03  1.03773574255E-03
  1.05547438679E-03  1.07351624840E-03  1.09186651045E-03  1.11053044463E-03
  1.12951341271E-03  1.14882086813E-03  1.16845835756E-03  1.18843152247E-03
  1.20874610076E-03  1.22940792841E-03  1.25042294116E-03  1.27179717623E-03
  1.29353677403E-03  1.31564797990E-03  1.33813714598E-03  1.36101073297E-03
  1.38427531200E-03  1.40793756655E-03  1.43200429431E-03  1.45648240920E-03
  1.48137894330E-03  1.50670104890E-03  1.53245600056E-03  1.55865119717E-03
  1.58529416411E-03  1.61239255539E-03  1.63995415585E-03  1.66798688340E-03
  1.69649879131E-03  1.72549807049E-03  1.75499305187E-03  1.78499220880E-03
  1.81550415945E-03  1.84653766932E-03  1.87810165372E-03  1.91020518039E-03
  1.94285747204E-03  1.97606790904E-03  2.00984603212E-03  2.04420154507E-03
  2.07914431757E-03  2.11468438800E-03  2.15083196633E-03  2.18759743706E-03
  2.22499136221E-03  2.26302448432E-03  2.30170772957E-03  2.34105221091E-03
  2.38106923125E-03  2.42177028671E-03  2.46316706990E-03  2.50527147333E-03
  2.54809559278E-03  2.59165173078E-03  2.63595240018E-03  2.68101032769E-03
  2.72683845758E-03  2.77344995540E-03  2.82085821173E-03  2.86907684603E-03
  2.91811971059E-03  2.96800089447E-03  3.01873472758E-03  3.07033578476E-03
  3.12281889000E-03  3.17619912068E-03  3.23049181190E-03  3.28571256090E-03
  3.34187723155E-03  3.39900195885E-03  3.45710315365E-03  3.51619750728E-03
  3.57630199641E-03  3.63743388790E-03  3.69961074377E-03  3.76285042620E-03
  3.82717110275E-03  3.89259125150E-03  3.95912966639E-03  4.02680546263E-03
  4.09563808215E-03  4.16564729923E-03  4.23685322618E-03  4.30927631907E-03
  4.38293738366E-03  4.45785758135E-03  4.53405843525E-03  4.61156183641E-03
  4.69039005005E-03  4.77056572198E-03  4.85211188513E-03  4.93505196613E-03
  5.01940979207E-03  5.10520959731E-03  5.19247603048E-03  5.28123416153E-03
  5.37150948896E-03  5.46332794712E-03  5.55671591368E-03  5.65170021720E-03
  5.74830814482E-03  5.84656745014E-03  5.94650636115E-03  6.04815358837E-03
  6.15153833308E-03  6.25669029571E-03  6.36363968439E-03  6.47241722362E-03
  6.58305416306E-03  6.69558228658E-03  6.81003392132E-03  6.92644194703E-03
  7.04483980548E-03  7.16526151008E-03  7.28774165566E-03  7.41231542839E-03
  7.53901861591E-03  7.66788761759E-03  7.79895945501E-03  7.93227178256E-03
  8.06786289829E-03  8.20577175492E-03  8.34603797099E-03  8.48870184226E-03
  8.63380435330E-03  8.78138718927E-03  8.93149274784E-03  9.08416415146E-03
  9.23944525964E-03  9.39738068166E-03  9.55801578930E-03  9.72139672992E-03
  9.88757043971E-03  1.00565846571E-02  1.02284879368E-02  1.04033296630E-02
  1.05811600646E-02  1.07620302287E-02  1.09459921158E-02  1.11330985746E-02