<PP_INFO>
Generated using Andrea Dal Corso code (rrkj3)                                   
Andrea Dal Corso   Generation date: 24Nov2004                                   
Au                                                                              
    2        The Pseudo was generated with a Fully-Relativistic Calculation
  2.70000000000E+00    Local Potential cutoff radius
nl pn  l   occ               Rcut            Rcut US             E pseu
5D  3  2  4.00      1.80000000000      2.40000000000     -0.59423407475
5D  3  2  0.00      1.80000000000      2.40000000000     -0.48121993219
5D  3  2  6.00      1.80000000000      2.40000000000     -0.44879422947
5D  3  2  0.00      1.80000000000      2.40000000000     -0.09775906639
6P  2  1  0.00      3.30000000000      3.30000000000     -0.05592566286
6P  2  1  0.00      3.30000000000      3.30000000000     -0.05590122431
6S  1  0  1.00      2.70000000000      2.70000000000     -0.44879299493
</PP_INFO>


<PP_HEADER>
   0                   Version Number
  Au                   Element                                               
   US                  Ultrasoft pseudopotential
    F                  Nonlinear Core Correction
 SLA  PZ   NOGX NOGC   PZ   Exchange-Correlation functional
   11.00000000000      Z valence
  -66.48006376607      Total energy
  0.0000000  0.0000000 Suggested cutoff for wfc and rho
    2                  Max angular momentum component
 1279                  Number of points in mesh
    5    6             Number of Wavefunctions, Number of Projectors
 Wavefunctions         nl  l   occ
                       5D  2  4.00
                       5D  2  6.00
                       6S  0  1.00
                       6P  1  0.00
                       6P  1  0.00
</PP_HEADER>


<PP_MESH>
  <PP_R>
  1.15428096906E-05  1.16880003629E-05  1.18350173091E-05  1.19838835008E-05
  1.21346221987E-05  1.22872569559E-05  1.24418116221E-05  1.25983103467E-05
  1.27567775829E-05  1.29172380915E-05  1.30797169449E-05  1.32442395307E-05
  1.34108315558E-05  1.35795190506E-05  1.37503283730E-05  1.39232862121E-05
  1.40984195930E-05  1.42757558806E-05  1.44553227842E-05  1.46371483613E-05
  1.48212610227E-05  1.50076895362E-05  1.51964630318E-05  1.53876110056E-05
  1.55811633250E-05  1.57771502328E-05  1.59756023525E-05  1.61765506925E-05
  1.63800266515E-05  1.65860620229E-05  1.67946890003E-05  1.70059401821E-05
  1.72198485766E-05  1.74364476074E-05  1.76557711187E-05  1.78778533801E-05
  1.81027290925E-05  1.83304333931E-05  1.85610018613E-05  1.87944705238E-05
  1.90308758605E-05  1.92702548103E-05  1.95126447766E-05  1.97580836333E-05
  2.00066097308E-05  2.02582619018E-05  2.05130794675E-05  2.07711022435E-05
  2.10323705465E-05  2.12969252002E-05  2.15648075418E-05  2.18360594285E-05
  2.21107232438E-05  2.23888419047E-05  2.26704588676E-05  2.29556181359E-05
  2.32443642662E-05  2.35367423757E-05  2.38327981491E-05  2.41325778457E-05
  2.44361283067E-05  2.47434969624E-05  2.50547318399E-05  2.53698815702E-05
  2.56889953961E-05  2.60121231799E-05  2.63393154108E-05  2.66706232133E-05
  2.70060983549E-05  2.73457932544E-05  2.76897609897E-05  2.80380553064E-05
  2.83907306264E-05  2.87478420558E-05  2.91094453940E-05  2.94755971422E-05
  2.98463545125E-05  3.02217754364E-05  3.06019185742E-05  3.09868433241E-05
  3.13766098312E-05  3.17712789975E-05  3.21709124907E-05  3.25755727545E-05
  3.29853230178E-05  3.34002273050E-05  3.38203504456E-05  3.42457580847E-05
  3.46765166933E-05  3.51126935781E-05  3.55543568927E-05  3.60015756480E-05
  3.64544197226E-05  3.69129598746E-05  3.73772677516E-05  3.78474159027E-05
  3.83234777896E-05  3.88055277978E-05  3.92936412487E-05  3.97878944110E-05
  4.02883645128E-05  4.07951297535E-05  4.13082693162E-05  4.18278633800E-05
  4.23539931325E-05  4.28867407827E-05  4.34261895734E-05  4.39724237945E-05
  4.45255287964E-05  4.50855910026E-05  4.56526979242E-05  4.62269381728E-05
  4.68084014745E-05  4.73971786841E-05  4.79933617993E-05  4.85970439750E-05
  4.92083195377E-05  4.98272840004E-05  5.04540340776E-05  5.10886677002E-05
  5.17312840312E-05  5.23819834805E-05  5.30408677213E-05  5.37080397056E-05
  5.43836036804E-05  5.50676652039E-05  5.57603311621E-05  5.64617097855E-05
  5.71719106660E-05  5.78910447738E-05  5.86192244751E-05  5.93565635495E-05
  6.01031772077E-05  6.08591821097E-05  6.16246963827E-05  6.23998396398E-05
  6.31847329989E-05  6.39794991010E-05  6.47842621300E-05  6.55991478318E-05
  6.64242835339E-05  6.72597981655E-05  6.81058222774E-05  6.89624880625E-05
  6.98299293767E-05  7.07082817595E-05  7.15976824551E-05  7.24982704343E-05
  7.34101864157E-05  7.43335728881E-05  7.52685741326E-05  7.62153362448E-05
  7.71740071584E-05  7.81447366677E-05  7.91276764510E-05  8.01229800948E-05
  8.11308031172E-05  8.21513029926E-05  8.31846391763E-05  8.42309731291E-05
  8.52904683429E-05  8.63632903658E-05  8.74496068285E-05  8.85495874703E-05
  8.96634041652E-05  9.07912309495E-05  9.19332440483E-05  9.30896219035E-05
  9.42605452016E-05  9.54461969016E-05  9.66467622641E-05  9.78624288797E-05
  9.90933866991E-05  1.00339828062E-04  1.01601947727E-04  1.02879942902E-04
  1.04174013279E-04  1.05484361057E-04  1.06811190980E-04  1.08154710370E-04
  1.09515129153E-04  1.10892659898E-04  1.12287517847E-04  1.13699920949E-04
  1.15130089895E-04  1.16578248151E-04  1.18044621997E-04  1.19529440554E-04
  1.21032935830E-04  1.22555342748E-04  1.24096899188E-04  1.25657846020E-04
  1.27238427147E-04  1.28838889537E-04  1.30459483266E-04  1.32100461554E-04
  1.33762080808E-04  1.35444600660E-04  1.37148284006E-04  1.38873397050E-04
  1.40620209345E-04  1.42388993834E-04  1.44180026893E-04  1.45993588374E-04
  1.47829961651E-04  1.49689433659E-04  1.51572294947E-04  1.53478839714E-04
  1.55409365862E-04  1.57364175039E-04  1.59343572689E-04  1.61347868096E-04
  1.63377374436E-04  1.65432408824E-04  1.67513292361E-04  1.69620350192E-04
  1.71753911547E-04  1.73914309800E-04  1.76101882518E-04  1.78316971514E-04
  1.80559922899E-04  1.82831087139E-04  1.85130819109E-04  1.87459478146E-04
  1.89817428107E-04  1.92205037428E-04  1.94622679177E-04  1.97070731116E-04
  1.99549575758E-04  2.02059600426E-04  2.04601197319E-04  2.07174763564E-04
  2.09780701288E-04  2.12419417673E-04  2.15091325025E-04  2.17796840834E-04
  2.20536387842E-04  2.23310394109E-04  2.26119293080E-04  2.28963523650E-04
  2.31843530237E-04  2.34759762847E-04  2.37712677148E-04  2.40702734538E-04
  2.43730402220E-04  2.46796153273E-04  2.49900466728E-04  2.53043827638E-04
  2.56226727162E-04  2.59449662633E-04  2.62713137642E-04  2.66017662113E-04
  2.69363752385E-04  2.72751931291E-04  2.76182728241E-04  2.79656679305E-04
  2.83174327293E-04  2.86736221847E-04  2.90342919518E-04  2.93994983861E-04
  2.97692985519E-04  3.01437502311E-04  3.05229119327E-04  3.09068429013E-04
  3.12956031270E-04  3.16892533544E-04  3.20878550921E-04  3.24914706224E-04
  3.29001630111E-04  3.33139961172E-04  3.37330346030E-04  3.41573439441E-04
  3.45869904396E-04  3.50220412228E-04  3.54625642712E-04  3.59086284174E-04
  3.63603033598E-04  3.68176596736E-04  3.72807688217E-04  3.77497031657E-04
  3.82245359776E-04  3.87053414511E-04  3.91921947129E-04  3.96851718348E-04
  4.01843498457E-04  4.06898067429E-04  4.12016215052E-04  4.17198741047E-04
  4.22446455194E-04  4.27760177459E-04  4.33140738122E-04  4.38588977907E-04
  4.44105748112E-04  4.49691910744E-04  4.55348338651E-04  4.61075915663E-04
  4.66875536725E-04  4.72748108039E-04  4.78694547207E-04  4.84715783371E-04
  4.90812757364E-04  4.96986421848E-04  5.03237741471E-04  5.09567693016E-04
  5.15977265549E-04  5.22467460580E-04  5.29039292214E-04  5.35693787314E-04
  5.42431985659E-04  5.49254940104E-04  5.56163716752E-04  5.63159395112E-04
  5.70243068273E-04  5.77415843074E-04  5.84678840274E-04  5.92033194734E-04
  5.99480055584E-04  6.07020586413E-04  6.14655965443E-04  6.22387385719E-04
  6.30216055289E-04  6.38143197401E-04  6.46170050685E-04  6.54297869355E-04
  6.62527923398E-04  6.70861498777E-04  6.79299897629E-04  6.87844438473E-04
  6.96496456410E-04  7.05257303335E-04  7.14128348149E-04  7.23110976970E-04
  7.32206593352E-04  7.41416618505E-04  7.50742491512E-04  7.60185669561E-04
  7.69747628167E-04  7.79429861407E-04  7.89233882148E-04  7.99161222289E-04
  8.09213432996E-04  8.19392084949E-04  8.29698768583E-04  8.40135094337E-04
  8.50702692908E-04  8.61403215506E-04  8.72238334110E-04  8.83209741727E-04
  8.94319152664E-04  9.05568302787E-04  9.16958949801E-04  9.28492873515E-04
  9.40171876131E-04  9.51997782515E-04  9.63972440489E-04  9.76097721118E-04
  9.88375519002E-04  1.00080775257E-03  1.01339636439E-03  1.02614332145E-03
  1.03905061549E-03  1.05212026331E-03  1.06535430705E-03  1.07875481458E-03
  1.09232387974E-03  1.10606362273E-03  1.11997619041E-03  1.13406375664E-03
  1.14832852265E-03  1.16277271733E-03  1.17739859760E-03  1.19220844881E-03
  1.20720458501E-03  1.22238934938E-03  1.23776511457E-03  1.25333428309E-03
  1.26909928763E-03  1.28506259152E-03  1.30122668905E-03  1.31759410591E-03
  1.33416739952E-03  1.35094915950E-03  1.36794200804E-03  1.38514860029E-03
  1.40257162484E-03  1.42021380405E-03  1.43807789457E-03  1.45616668768E-03
  1.47448300979E-03  1.49302972288E-03  1.51180972490E-03  1.53082595026E-03
  1.55008137029E-03  1.56957899369E-03  1.58932186700E-03  1.60931307509E-03
  1.62955574162E-03  1.65005302955E-03  1.67080814162E-03  1.69182432086E-03
  1.71310485110E-03  1.73465305745E-03  1.75647230687E-03  1.77856600867E-03
  1.80093761502E-03  1.82359062154E-03  1.84652856780E-03  1.86975503791E-03
  1.89327366105E-03  1.91708811204E-03  1.94120211196E-03  1.96561942866E-03
  1.99034387739E-03  2.01537932140E-03  2.04072967253E-03  2.06639889182E-03
  2.09239099015E-03  2.11871002882E-03  2.14536012025E-03  2.17234542856E-03
  2.19967017026E-03  2.22733861490E-03  2.25535508573E-03  2.28372396039E-03
  2.31244967155E-03  2.34153670769E-03  2.37098961370E-03  2.40081299165E-03
  2.43101150153E-03  2.46158986190E-03  2.49255285069E-03  2.52390530593E-03
  2.55565212651E-03  2.58779827294E-03  2.62034876812E-03  2.65330869812E-03
  2.68668321300E-03  2.72047752760E-03  2.75469692234E-03  2.78934674409E-03
  2.82443240694E-03  2.85995939310E-03  2.89593325374E-03  2.93235960983E-03
  2.96924415309E-03  3.00659264678E-03  3.04441092669E-03  3.08270490200E-03
  3.12148055622E-03  3.16074394813E-03  3.20050121272E-03  3.24075856213E-03
  3.28152228666E-03  3.32279875572E-03  3.36459441885E-03  3.40691580670E-03
  3.44976953208E-03  3.49316229096E-03  3.53710086356E-03  3.58159211537E-03
  3.62664299823E-03  3.67226055144E-03  3.71845190283E-03  3.76522426990E-03
  3.81258496091E-03  3.86054137609E-03  3.90910100871E-03  3.95827144631E-03
  4.00806037189E-03  4.05847556505E-03  4.10952490327E-03  4.16121636312E-03
  4.21355802149E-03  4.26655805688E-03  4.32022475065E-03  4.37456648832E-03
  4.42959176090E-03  4.48530916621E-03  4.54172741020E-03  4.59885530834E-03
  4.65670178698E-03  4.71527588475E-03  4.77458675396E-03  4.83464366208E-03
  4.89545599309E-03  4.95703324907E-03  5.01938505158E-03  5.08252114322E-03
  5.14645138912E-03  5.21118577853E-03  5.27673442631E-03  5.34310757458E-03
  5.41031559429E-03  5.47836898681E-03  5.54727838563E-03  5.61705455799E-03
  5.68770840655E-03  5.75925097112E-03  5.83169343037E-03  5.90504710358E-03
  5.97932345242E-03  6.05453408271E-03  6.13069074627E-03  6.20780534273E-03
  6.28588992141E-03  6.36495668318E-03  6.44501798237E-03  6.52608632874E-03
  6.60817438938E-03  6.69129499071E-03  6.77546112049E-03  6.86068592986E-03
  6.94698273537E-03  7.03436502106E-03  7.12284644059E-03  7.21244081938E-03
  7.30316215672E-03  7.39502462800E-03  7.48804258692E-03  7.58223056774E-03
  7.67760328750E-03  7.77417564840E-03  7.87196274006E-03  7.97097984192E-03
  8.07124242559E-03  8.17276615732E-03  8.27556690038E-03  8.37966071761E-03
  8.48506387387E-03  8.59179283863E-03  8.69986428849E-03  8.80929510986E-03
  8.92010240150E-03  9.03230347730E-03  9.14591586889E-03  9.26095732844E-03
  9.37744583141E-03  9.49539957938E-03  9.61483700285E-03  9.73577676416E-03
  9.85823776040E-03  9.98223912634E-03  1.01078002375E-02  1.02349407129E-02
  1.03636804187E-02  1.04940394706E-02  1.06260382376E-02  1.07596973446E-02
  1.08950376763E-02  1.10320803797E-02  1.11708468682E-02  1.13113588242E-02
  1.14536382030E-02  1.15977072361E-02  1.17435884345E-02  1.18913045926E-02
  1.20408787911E-02  1.21923344015E-02  1.23456950890E-02  1.25009848164E-02
  1.26582278481E-02  1.28174487537E-02  1.29786724117E-02  1.31419240137E-02
  1.33072290681E-02  1.34746134040E-02  1.36441031758E-02  1.38157248664E-02
  1.39895052921E-02  1.41654716065E-02  1.43436513046E-02  1.45240722275E-02
  1.47067625662E-02  1.48917508664E-02  1.50790660331E-02  1.52687373344E-02
  1.54607944071E-02  1.56552672603E-02  1.58521862809E-02  1.60515822379E-02
  1.62534862872E-02  1.64579299768E-02  1.66649452515E-02  1.68745644578E-02
  1.70868203491E-02  1.73017460908E-02  1.75193752656E-02  1.77397418784E-02
  1.79628803619E-02  1.81888255821E-02  1.84176128433E-02  1.86492778939E-02
  1.88838569322E-02  1.91213866115E-02  1.93619040464E-02  1.96054468182E-02
  1.98520529809E-02  2.01017610673E-02  2.03546100948E-02  2.06106395715E-02
  2.08698895025E-02  2.11324003963E-02  2.13982132706E-02  2.16673696593E-02
  2.19399116186E-02  2.22158817337E-02  2.24953231255E-02  2.27782794573E-02
  2.30647949417E-02  2.33549143471E-02  2.36486830055E-02  2.39461468187E-02
  2.42473522660E-02  2.45523464115E-02  2.48611769110E-02  2.51738920200E-02
  2.54905406009E-02  2.58111721306E-02  2.61358367084E-02  2.64645850639E-02
  2.67974685647E-02  2.71345392245E-02  2.74758497112E-02  2.78214533553E-02
  2.81714041581E-02  2.85257568002E-02  2.88845666497E-02  2.92478897716E-02
  2.96157829358E-02  2.99883036263E-02  3.03655100502E-02  3.07474611469E-02
  3.11342165969E-02  3.15258368316E-02  3.19223830425E-02  3.23239171907E-02
  3.27305020167E-02  3.31422010502E-02  3.35590786200E-02  3.39811998642E-02
  3.44086307400E-02  3.48414380343E-02  3.52796893743E-02  3.57234532374E-02
  3.61727989628E-02  3.66277967617E-02  3.70885177283E-02  3.75550338512E-02
  3.80274180246E-02  3.85057440595E-02  3.89900866952E-02  3.94805216112E-02
  3.99771254391E-02  4.04799757742E-02  4.09891511878E-02  4.15047312397E-02
  4.20267964903E-02  4.25554285134E-02  4.30907099087E-02  4.36327243152E-02
  4.41815564236E-02  4.47372919900E-02  4.53000178494E-02  4.58698219287E-02
  4.64467932610E-02  4.70310219993E-02  4.76225994304E-02  4.82216179896E-02
  4.88281712746E-02  4.94423540608E-02  5.00642623155E-02  5.06939932129E-02
  5.13316451499E-02  5.19773177610E-02  5.26311119336E-02  5.32931298246E-02
  5.39634748756E-02  5.46422518292E-02  5.53295667459E-02  5.60255270200E-02
  5.67302413967E-02  5.74438199890E-02  5.81663742950E-02  5.88980172154E-02
  5.96388630708E-02  6.03890276198E-02  6.11486280773E-02  6.19177831324E-02
  6.26966129670E-02  6.34852392750E-02  6.42837852808E-02  6.50923757588E-02
  6.59111370529E-02  6.67401970963E-02  6.75796854313E-02  6.84297332296E-02
  6.92904733130E-02  7.01620401738E-02  7.10445699961E-02  7.19382006770E-02
  7.28430718482E-02  7.37593248975E-02  7.46871029914E-02  7.56265510971E-02
  7.65778160052E-02  7.75410463529E-02  7.85163926469E-02  7.95040072870E-02
  8.05040445899E-02  8.15166608136E-02  8.25420141814E-02  8.35802649068E-02
  8.46315752187E-02  8.56961093864E-02  8.67740337456E-02  8.78655167240E-02
  8.89707288682E-02  9.00898428698E-02  9.12230335927E-02  9.23704781001E-02
  9.35323556827E-02  9.47088478861E-02  9.59001385397E-02  9.71064137851E-02
  9.83278621051E-02  9.95646743537E-02  1.00817043785E-01  1.02085166085E-01
  1.03369239400E-01  1.04669464368E-01  1.05986044154E-01  1.07319184474E-01
  1.08669093635E-01  1.10035982563E-01  1.11420064838E-01  1.12821556724E-01
  1.14240677208E-01  1.15677648030E-01  1.17132693720E-01  1.18606041632E-01
  1.20097921979E-01  1.21608567871E-01  1.23138215349E-01  1.24687103423E-01
  1.26255474112E-01  1.27843572474E-01  1.29451646656E-01  1.31079947920E-01
  1.32728730693E-01  1.34398252600E-01  1.36088774507E-01  1.37800560563E-01
  1.39533878236E-01  1.41288998362E-01  1.43066195181E-01  1.44865746384E-01
  1.46687933155E-01  1.48533040214E-01  1.50401355862E-01  1.52293172028E-01
  1.54208784313E-01  1.56148492033E-01  1.58112598274E-01  1.60101409929E-01
  1.62115237755E-01  1.64154396417E-01  1.66219204538E-01  1.68309984747E-01
  1.70427063734E-01  1.72570772297E-01  1.74741445393E-01  1.76939422196E-01
  1.79165046144E-01  1.81418664995E-01  1.83700630881E-01  1.86011300364E-01
  1.88351034492E-01  1.90720198852E-01  1.93119163631E-01  1.95548303672E-01
  1.98007998534E-01  2.00498632548E-01  2.03020594882E-01  2.05574279596E-01
  2.08160085710E-01  2.10778417261E-01  2.13429683368E-01  2.16114298298E-01
  2.18832681526E-01  2.21585257806E-01  2.24372457234E-01  2.27194715314E-01
  2.30052473031E-01  2.32946176915E-01  2.35876279113E-01  2.38843237459E-01
  2.41847515547E-01  2.44889582802E-01  2.47969914552E-01  2.51088992106E-01
  2.54247302825E-01  2.57445340203E-01  2.60683603939E-01  2.63962600019E-01
  2.67282840792E-01  2.70644845052E-01  2.74049138120E-01  2.77496251924E-01
  2.80986725082E-01  2.84521102987E-01  2.88099937893E-01  2.91723789000E-01
  2.95393222544E-01  2.99108811879E-01  3.02871137574E-01  3.06680787501E-01
  3.10538356925E-01  3.14444448600E-01  3.18399672858E-01  3.22404647714E-01
  3.26459998952E-01  3.30566360229E-01  3.34724373172E-01  3.38934687479E-01
  3.43197961021E-01  3.47514859943E-01  3.51886058768E-01  3.56312240506E-01
  3.60794096757E-01  3.65332327819E-01  3.69927642800E-01  3.74580759729E-01
  3.79292405663E-01  3.84063316808E-01  3.88894238627E-01  3.93785925962E-01
  3.98739143149E-01  4.03754664138E-01  4.08833272615E-01  4.13975762123E-01
  4.19182936186E-01  4.24455608435E-01  4.29794602737E-01  4.35200753320E-01
  4.40674904906E-01  4.46217912843E-01  4.51830643236E-01  4.57513973087E-01
  4.63268790426E-01  4.69095994457E-01  4.74996495691E-01  4.80971216094E-01
  4.87021089228E-01  4.93147060398E-01  4.99350086800E-01  5.05631137669E-01
  5.11991194431E-01  5.18431250860E-01  5.24952313226E-01  5.31555400459E-01
  5.38241544305E-01  5.45011789487E-01  5.51867193870E-01  5.58808828625E-01
  5.65837778396E-01  5.72955141472E-01  5.80162029954E-01  5.87459569933E-01
  5.94848901666E-01  6.02331179749E-01  6.09907573305E-01  6.17579266160E-01
  6.25347457032E-01  6.33213359716E-01  6.41178203276E-01  6.49243232235E-01
  6.57409706770E-01  6.65678902909E-01  6.74052112731E-01  6.82530644567E-01
  6.91115823204E-01  6.99808990095E-01  7.08611503565E-01  7.17524739024E-01
  7.26550089183E-01  7.35688964271E-01  7.44942792258E-01  7.54313019071E-01
  7.63801108827E-01  7.73408544061E-01  7.83136825954E-01  7.92987474569E-01
  8.02962029090E-01  8.13062048062E-01  8.23289109633E-01  8.33644811803E-01
  8.44130772670E-01  8.54748630688E-01  8.65500044918E-01  8.76386695292E-01
  8.87410282869E-01  8.98572530109E-01  9.09875181135E-01  9.21320002009E-01
  9.32908781008E-01  9.44643328901E-01  9.56525479237E-01  9.68557088625E-01
  9.80740037029E-01  9.93076228058E-01  1.00556758927E+00  1.01821607246E+00
  1.03102365399E+00  1.04399233506E+00  1.05712414205E+00  1.07042112684E+00
  1.08388536712E+00  1.09751896668E+00  1.11132405582E+00  1.12530279160E+00
  1.13945735823E+00  1.15378996740E+00  1.16830285859E+00  1.18299829948E+00
  1.19787858626E+00  1.21294604401E+00  1.22820302705E+00  1.24365191931E+00
  1.25929513471E+00  1.27513511754E+00  1.29117434282E+00  1.30741531672E+00
  1.32386057693E+00  1.34051269304E+00  1.35737426699E+00  1.37444793343E+00
  1.39173636015E+00  1.40924224852E+00  1.42696833385E+00  1.44491738589E+00
  1.46309220920E+00  1.48149564366E+00  1.50013056482E+00  1.51899988443E+00
  1.53810655087E+00  1.55745354958E+00  1.57704390358E+00  1.59688067390E+00
  1.61696696008E+00  1.63730590063E+00  1.65790067355E+00  1.67875449684E+00
  1.69987062892E+00  1.72125236925E+00  1.74290305877E+00  1.76482608044E+00
  1.78702485977E+00  1.80950286537E+00  1.83226360947E+00  1.85531064849E+00
  1.87864758358E+00  1.90227806117E+00  1.92620577358E+00  1.95043445956E+00
  1.97496790489E+00  1.99980994298E+00  2.02496445544E+00  2.05043537271E+00
  2.07622667468E+00  2.10234239130E+00  2.12878660319E+00  2.15556344232E+00
  2.18267709262E+00  2.21013179066E+00  2.23793182628E+00  2.26608154331E+00
  2.29458534019E+00  2.32344767070E+00  2.35267304463E+00  2.38226602852E+00
  2.41223124631E+00  2.44257338015E+00  2.47329717104E+00  2.50440741966E+00
  2.53590898702E+00  2.56780679533E+00  2.60010582867E+00  2.63281113383E+00
  2.66592782110E+00  2.69946106501E+00  2.73341610520E+00  2.76779824722E+00
  2.80261286334E+00  2.83786539343E+00  2.87356134576E+00  2.90970629790E+00
  2.94630589757E+00  2.98336586352E+00  3.02089198646E+00  3.05889012993E+00
  3.09736623119E+00  3.13632630224E+00  3.17577643064E+00  3.21572278058E+00
  3.25617159374E+00  3.29712919034E+00  3.33860197009E+00  3.38059641318E+00
  3.42311908134E+00  3.46617661883E+00  3.50977575346E+00  3.55392329769E+00
  3.59862614967E+00  3.64389129431E+00  3.68972580437E+00  3.73613684160E+00
  3.78313165781E+00  3.83071759604E+00  3.87890209169E+00  3.92769267368E+00
  3.97709696564E+00  4.02712268710E+00  4.07777765466E+00  4.12906978329E+00
  4.18100708746E+00  4.23359768250E+00  4.28684978580E+00  4.34077171809E+00
  4.39537190479E+00  4.45065887730E+00  4.50664127431E+00  4.56332784319E+00
  4.62072744133E+00  4.67884903754E+00  4.73770171342E+00  4.79729466484E+00
  4.85763720331E+00  4.91873875747E+00  4.98060887457E+00  5.04325722194E+00
  5.10669358852E+00  5.17092788635E+00  5.23597015219E+00  5.30183054902E+00
  5.36851936766E+00  5.43604702837E+00  5.50442408249E+00  5.57366121407E+00
  5.64376924155E+00  5.71475911946E+00  5.78664194011E+00  5.85942893534E+00
  5.93313147826E+00  6.00776108504E+00  6.08332941672E+00  6.15984828099E+00
  6.23732963409E+00  6.31578558264E+00  6.39522838553E+00  6.47567045587E+00
  6.55712436289E+00  6.63960283393E+00  6.72311875643E+00  6.80768517991E+00
  6.89331531805E+00  6.98002255073E+00  7.06782042614E+00  7.15672266287E+00
  7.24674315207E+00  7.33789595964E+00  7.43019532838E+00  7.52365568025E+00
  7.61829161863E+00  7.71411793058E+00  7.81114958915E+00  7.90940175573E+00
  8.00888978243E+00  8.10962921446E+00  8.21163579254E+00  8.31492545543E+00
  8.41951434233E+00  8.52541879548E+00  8.63265536267E+00  8.74124079981E+00
  8.85119207362E+00  8.96252636419E+00  9.07526106775E+00  9.18941379931E+00
  9.30500239547E+00  9.42204491718E+00  9.54055965259E+00  9.66056511985E+00
  9.78208007007E+00  9.90512349019E+00  1.00297146060E+01  1.01558728852E+01
  1.02836180401E+01  1.04129700313E+01  1.05439490702E+01  1.06765756226E+01
  1.08108704117E+01  1.09468544213E+01  1.10845488992E+01  1.12239753603E+01
  1.13651555905E+01  1.15081116494E+01  1.16528658741E+01  1.17994408828E+01
  1.19478595781E+01  1.20981451508E+01  1.22503210834E+01  1.24044111535E+01
  1.25604394380E+01  1.27184303168E+01  1.28784084763E+01  1.30403989132E+01
  1.32044269390E+01  1.33705181834E+01  1.35386985984E+01  1.37089944627E+01
  1.38814323852E+01  1.40560393097E+01  1.42328425191E+01  1.44118696390E+01
  1.45931486428E+01  1.47767078559E+01  1.49625759596E+01  1.51507819962E+01
  1.53413553733E+01  1.55343258685E+01  1.57297236336E+01  1.59275792001E+01
  1.61279234832E+01  1.63307877872E+01  1.65362038100E+01  1.67442036483E+01
  1.69548198025E+01  1.71680851817E+01  1.73840331092E+01  1.76026973273E+01
  1.78241120026E+01  1.80483117317E+01  1.82753315462E+01  1.85052069184E+01
  1.87379737669E+01  1.89736684619E+01  1.92123278312E+01  1.94539891658E+01
  1.96986902258E+01  1.99464692462E+01  2.01973649430E+01  2.04514165192E+01
  2.07086636708E+01  2.09691465933E+01  2.12329059876E+01  2.14999830666E+01
  2.17704195617E+01  2.20442577292E+01  2.23215403568E+01  2.26023107705E+01
  2.28866128412E+01  2.31744909918E+01  2.34659902037E+01  2.37611560243E+01
  2.40600345739E+01  2.43626725529E+01  2.46691172490E+01  2.49794165448E+01
  2.52936189254E+01  2.56117734853E+01  2.59339299370E+01  2.62601386179E+01
  2.65904504990E+01  2.69249171920E+01  2.72635909582E+01  2.76065247159E+01
  2.79537720492E+01  2.83053872163E+01  2.86614251577E+01  2.90219415052E+01
  2.93869925900E+01  2.97566354522E+01  3.01309278493E+01  3.05099282651E+01
  3.08936959193E+01  3.12822907763E+01  3.16757735549E+01  3.20742057376E+01
  3.24776495802E+01  3.28861681216E+01  3.32998251937E+01  3.37186854312E+01
  3.41428142819E+01  3.45722780168E+01  3.50071437405E+01  3.54474794016E+01
  3.58933538035E+01  3.63448366149E+01  3.68019983810E+01  3.72649105343E+01
  3.77336454056E+01  3.82082762358E+01  3.86888771869E+01  3.91755233537E+01
  3.96682907758E+01  4.01672564490E+01  4.06724983378E+01  4.11840953872E+01
  4.17021275352E+01  4.22266757256E+01  4.27578219199E+01  4.32956491109E+01
  4.38402413352E+01  4.43916836863E+01  4.49500623284E+01  4.55154645091E+01
  4.60879785738E+01  4.66676939789E+01  4.72547013062E+01  4.78490922766E+01
  4.84509597651E+01  4.90603978146E+01  4.96775016510E+01  5.03023676982E+01
  5.09350935927E+01  5.15757781992E+01  5.22245216259E+01  5.28814252404E+01
  5.35465916852E+01  5.42201248939E+01  5.49021301074E+01  5.55927138904E+01
  5.62919841481E+01  5.70000501428E+01  5.77170225114E+01  5.84430132821E+01
  5.91781358926E+01  5.99225052071E+01  6.06762375351E+01  6.14394506486E+01
  6.22122638013E+01  6.29947977467E+01  6.37871747575E+01  6.45895186441E+01
  6.54019547744E+01  6.62246100932E+01  6.70576131420E+01  6.79010940794E+01
  6.87551847008E+01  6.96200184597E+01  7.04957304882E+01  7.13824576179E+01
  7.22803384019E+01  7.31895131359E+01  7.41101238801E+01  7.50423144820E+01
  7.59862305982E+01  7.69420197176E+01  7.79098311840E+01  7.88898162201E+01
  7.98821279505E+01  8.08869214259E+01  8.19043536473E+01  8.29345835906E+01
  8.39777722314E+01  8.50340825699E+01  8.61036796568E+01  8.71867306188E+01
  8.82834046849E+01  8.93938732126E+01  9.05183097148E+01  9.16568898871E+01
  9.28097916349E+01  9.39771951015E+01  9.51592826960E+01  9.63562391220E+01
  9.75682514064E+01  9.87955089287E+01  1.00038203450E+02
  </PP_R>
  <PP_RAB>
  1.44285121132E-07  1.46100004536E-07  1.47937716363E-07  1.49798543760E-07
  1.51682777483E-07  1.53590711949E-07  1.55522645277E-07  1.57478879334E-07
  1.59459719786E-07  1.61465476144E-07  1.63496461811E-07  1.65552994133E-07
  1.67635394447E-07  1.69743988133E-07  1.71879104662E-07  1.74041077651E-07
  1.76230244912E-07  1.78446948508E-07  1.80691534802E-07  1.82964354516E-07
  1.85265762783E-07  1.87596119203E-07  1.89955787897E-07  1.92345137570E-07
  1.94764541562E-07  1.97214377910E-07  1.99695029406E-07  2.02206883656E-07
  2.04750333143E-07  2.07325775287E-07  2.09933612504E-07  2.12574252276E-07
  2.15248107207E-07  2.17955595093E-07  2.20697138984E-07  2.23473167251E-07
  2.26284113656E-07  2.29130417414E-07  2.32012523266E-07  2.34930881547E-07
  2.37885948256E-07  2.40878185128E-07  2.43908059707E-07  2.46976045417E-07
  2.50082621635E-07  2.53228273773E-07  2.56413493343E-07  2.59638778044E-07
  2.62904631831E-07  2.66211565003E-07  2.69560094273E-07  2.72950742856E-07
  2.76384040548E-07  2.79860523808E-07  2.83380735845E-07  2.86945226699E-07
  2.90554553327E-07  2.94209279696E-07  2.97909976864E-07  3.01657223071E-07
  3.05451603833E-07  3.09293712030E-07  3.13184147999E-07  3.17123519628E-07
  3.21112442452E-07  3.25151539748E-07  3.29241442634E-07  3.33382790166E-07
  3.37576229436E-07  3.41822415680E-07  3.46122012371E-07  3.50475691330E-07
  3.54884132830E-07  3.59348025697E-07  3.63868067425E-07  3.68444964278E-07
  3.73079431407E-07  3.77772192955E-07  3.82523982178E-07  3.87335541551E-07
  3.92207622890E-07  3.97140987469E-07  4.02136406134E-07  4.07194659432E-07
  4.12316537723E-07  4.17502841312E-07  4.22754380570E-07  4.28071976059E-07
  4.33456458666E-07  4.38908669726E-07  4.44429461159E-07  4.50019695600E-07
  4.55680246533E-07  4.61411998432E-07  4.67215846895E-07  4.73092698784E-07
  4.79043472370E-07  4.85069097473E-07  4.91170515609E-07  4.97348680138E-07
  5.03604556410E-07  5.09939121918E-07  5.16353366452E-07  5.22848292250E-07
  5.29424914157E-07  5.36084259784E-07  5.42827369667E-07  5.49655297432E-07
  5.56569109954E-07  5.63569887533E-07  5.70658724053E-07  5.77836727160E-07
  5.85105018431E-07  5.92464733551E-07  5.99917022492E-07  6.07463049688E-07
  6.15103994221E-07  6.22841050005E-07  6.30675425970E-07  6.38608346253E-07
  6.46641050390E-07  6.54774793506E-07  6.63010846517E-07  6.71350496320E-07
  6.79795046005E-07  6.88345815049E-07  6.97004139527E-07  7.05771372319E-07
  7.14648883325E-07  7.23638059672E-07  7.32740305939E-07  7.41957044369E-07
  7.51289715097E-07  7.60739776371E-07  7.70308704783E-07  7.79997995498E-07
  7.89809162486E-07  7.99743738762E-07  8.09803276625E-07  8.19989347898E-07
  8.30303544174E-07  8.40747477069E-07  8.51322778467E-07  8.62031100781E-07
  8.72874117209E-07  8.83853521993E-07  8.94971030689E-07  9.06228380429E-07
  9.17627330197E-07  9.29169661102E-07  9.40857176657E-07  9.52691703060E-07
  9.64675089480E-07  9.76809208346E-07  9.89095955637E-07  1.00153725118E-06
  1.01413503896E-06  1.02689128741E-06  1.03980798970E-06  1.05288716411E-06
  1.06613085429E-06  1.07954112957E-06  1.09312008536E-06  1.10686984338E-06
  1.12079255207E-06  1.13489038687E-06  1.14916555060E-06  1.16362027379E-06
  1.17825681502E-06  1.19307746127E-06  1.20808452830E-06  1.22328036100E-06
  1.23866733374E-06  1.25424785077E-06  1.27002434658E-06  1.28599928628E-06
  1.30217516598E-06  1.31855451321E-06  1.33513988725E-06  1.35193387963E-06
  1.36893911442E-06  1.38615824873E-06  1.40359397309E-06  1.42124901186E-06