<PP_INFO>
Generated using BHS code
Author: BHS        Generation date: 1982
Info: See Bachelet-Hamann-Schlueter paper: PRB26, 4199 (1982)
    0        The Pseudo was generated with a Non-Relativistic Calculation
  0.00000000000E+00    Local Potential cutoff radius
nl pn  l   occ               Rcut            Rcut US             E pseu
2S  0  0  2.00      0.00000000000      0.00000000000      0.00000000000
2P  0  1  1.00      0.00000000000      0.00000000000      0.00000000000
</PP_INFO>


<PP_HEADER>
   0                   Version Number
  B                    Element
   NC                  Norm - Conserving pseudopotential
    F                  Nonlinear Core Correction
 SLA  PZ   NOGX NOGC   PZ   Exchange-Correlation functional
    3.00000000000      Z valence
    0.00000000000      Total energy
  0.0000000  0.0000000 Suggested cutoff for wfc and rho
    0                  Max angular momentum component
  389                  Number of points in mesh
    2    1             Number of Wavefunctions, Number of Projectors
 Wavefunctions         nl  l   occ
                       2S  0  2.00
                       2P  1  1.00
</PP_HEADER>


<PP_MESH>
  <PP_R>
  3.66312777775E-03  3.75586029894E-03  3.85094035508E-03  3.94842737430E-03
  4.04838228916E-03  4.15086757474E-03  4.25594728768E-03  4.36368710621E-03
  4.47415437123E-03  4.58741812839E-03  4.70354917120E-03  4.82262008536E-03
  4.94470529407E-03  5.06988110454E-03  5.19822575575E-03  5.32981946727E-03
  5.46474448946E-03  5.60308515484E-03  5.74492793085E-03  5.89036147382E-03
  6.03947668446E-03  6.19236676464E-03  6.34912727561E-03  6.50985619782E-03
  6.67465399207E-03  6.84362366233E-03  7.01687082017E-03  7.19450375069E-03
  7.37663348025E-03  7.56337384587E-03  7.75484156634E-03  7.95115631524E-03
  8.15244079567E-03  8.35882081698E-03  8.57042537341E-03  8.78738672468E-03
  9.00984047871E-03  9.23792567634E-03  9.47178487823E-03  9.71156425400E-03
  9.95741367357E-03  1.02094868008E-02  1.04679411897E-02  1.07329383825E-02
  1.10046440113E-02  1.12832279008E-02  1.15688641750E-02  1.18617313659E-02
  1.21620125250E-02  1.24698953379E-02  1.27855722413E-02  1.31092405436E-02
  1.34411025479E-02  1.37813656789E-02  1.41302426121E-02  1.44879514069E-02
  1.48547156429E-02  1.52307645597E-02  1.56163332002E-02  1.60116625573E-02
  1.64169997248E-02  1.68325980515E-02  1.72587172999E-02  1.76956238084E-02
  1.81435906579E-02  1.86028978421E-02  1.90738324431E-02  1.95566888103E-02
  2.00517687446E-02  2.05593816871E-02  2.10798449124E-02  2.16134837270E-02
  2.21606316725E-02  2.27216307342E-02  2.32968315547E-02  2.38865936533E-02
  2.44912856506E-02  2.51112854986E-02  2.57469807176E-02  2.63987686376E-02
  2.70670566473E-02  2.77522624486E-02  2.84548143173E-02  2.91751513712E-02
  2.99137238445E-02  3.06709933690E-02  3.14474332627E-02  3.22435288260E-02
  3.30597776443E-02  3.38966898999E-02  3.47547886901E-02  3.56346103546E-02
  3.65367048105E-02  3.74616358964E-02  3.84099817242E-02  3.93823350408E-02
  4.03793035989E-02  4.14015105362E-02  4.24495947653E-02  4.35242113730E-02
  4.46260320297E-02  4.57557454090E-02  4.69140576188E-02  4.81016926417E-02
  4.93193927883E-02  5.05679191609E-02  5.18480521292E-02  5.31605918178E-02
  5.45063586068E-02  5.58861936443E-02  5.73009593720E-02  5.87515400647E-02
  6.02388423824E-02  6.17637959376E-02  6.33273538758E-02  6.49304934717E-02
  6.65742167396E-02  6.82595510602E-02  6.99875498222E-02  7.17592930812E-02
  7.35758882343E-02  7.54384707126E-02  7.73482046909E-02  7.93062838150E-02
  8.13139319481E-02  8.33724039357E-02  8.54829863897E-02  8.76469984930E-02
  8.98657928234E-02  9.21407561998E-02  9.44733105482E-02  9.68649137911E-02
  9.93170607583E-02  1.01831284122E-01  1.04409155352E-01  1.07052285704E-01
  1.09762327219E-01  1.12540973761E-01  1.15389962076E-01  1.18311072873E-01
  1.21306131943E-01  1.24377011293E-01  1.27525630324E-01  1.30753957026E-01
  1.34064009207E-01  1.37457855758E-01  1.40937617944E-01  1.44505470728E-01
  1.48163644136E-01  1.51914424645E-01  1.55760156614E-01  1.59703243752E-01
  1.63746150616E-01  1.67891404154E-01  1.72141595285E-01  1.76499380517E-01
  1.80967483607E-01  1.85548697266E-01  1.90245884900E-01  1.95061982406E-01
  2.00000000000E-01  2.05063024105E-01  2.10254219275E-01  2.15576830177E-01
  2.21034183615E-01  2.26629690613E-01  2.32366848546E-01  2.38249243322E-01
  2.44280551632E-01  2.50464543238E-01  2.56805083338E-01  2.63306134974E-01
  2.69971761515E-01  2.76806129196E-01  2.83813509719E-01  2.90998282924E-01
  2.98364939528E-01  3.05918083933E-01  3.13662437098E-01  3.21602839497E-01
  3.29744254140E-01  3.38091769676E-01  3.46650603573E-01  3.55426105383E-01
  3.64423760078E-01  3.73649191486E-01  3.83108165803E-01  3.92806595194E-01
  4.02750541494E-01  4.12946219993E-01  4.23400003323E-01  4.34118425437E-01
  4.45108185698E-01  4.56376153066E-01  4.67929370385E-01  4.79775058793E-01
  4.91920622231E-01  5.04373652072E-01  5.17141931863E-01  5.30233442197E-01
  5.43656365692E-01  5.57419092113E-01  5.71530223613E-01  5.85998580107E-01
  6.00833204789E-01  6.16043369784E-01  6.31638581938E-01  6.47628588768E-01
  6.64023384547E-01  6.80833216558E-01  6.98068591492E-01  7.15740282020E-01
  7.33859333524E-01  7.52437071000E-01  7.71485106139E-01  7.91015344584E-01
  8.11039993369E-01  8.31571568551E-01  8.52622903034E-01  8.74207154586E-01
  8.96337814068E-01  9.19028713861E-01  9.42294036518E-01  9.66148323622E-01
  9.90606484879E-01  1.01568380744E+00  1.04139596544E+00  1.06775902981E+00
  1.09478947835E+00  1.12250420594E+00  1.15092053520E+00  1.18005622726E+00
  1.20992949288E+00  1.24055900382E+00  1.27196390452E+00  1.30416382407E+00
  1.33717888846E+00  1.37102973318E+00  1.40573751612E+00  1.44132393076E+00
  1.47781121979E+00  1.51522218893E+00  1.55358022126E+00  1.59290929181E+00
  1.63323398251E+00  1.67457949763E+00  1.71697167944E+00  1.76043702444E+00
  1.80500269989E+00  1.85069656078E+00  1.89754716727E+00  1.94558380251E+00
  1.99483649096E+00  2.04533601716E+00  2.09711394495E+00  2.15020263722E+00
  2.20463527613E+00  2.26044588386E+00  2.31766934384E+00  2.37634142262E+00
  2.43649879214E+00  2.49817905272E+00  2.56142075653E+00  2.62626343170E+00
  2.69274760700E+00  2.76091483721E+00  2.83080772908E+00  2.90246996792E+00
  2.97594634497E+00  3.05128278537E+00  3.12852637684E+00  3.20772539913E+00
  3.28892935422E+00  3.37218899722E+00  3.45755636811E+00  3.54508482429E+00
  3.63482907389E+00  3.72684520998E+00  3.82119074565E+00  3.91792464992E+00
  4.01710738464E+00  4.11880094224E+00  4.22306888451E+00  4.32997638230E+00
  4.43959025629E+00  4.55197901871E+00  4.66721291619E+00  4.78536397368E+00
  4.90650603942E+00  5.03071483116E+00  5.15806798344E+00  5.28864509611E+00
  5.42252778413E+00  5.55979972853E+00  5.70054672875E+00  5.84485675625E+00
  5.99282000948E+00  6.14452897030E+00  6.30007846175E+00  6.45956570732E+00
  6.62309039174E+00  6.79075472325E+00  6.96266349752E+00  7.13892416313E+00
  7.31964688874E+00  7.50494463192E+00  7.69493320981E+00  7.88973137144E+00
  8.08946087201E+00  8.29424654897E+00  8.50421640001E+00  8.71950166314E+00
  8.94023689866E+00  9.16656007327E+00  9.39861264632E+00  9.63653965822E+00
  9.88048982111E+00  1.01306156118E+01  1.03870733670E+01  1.06500233811E+01
  1.09196300066E+01  1.11960617563E+01  1.14794914091E+01  1.17700961177E+01
  1.20680575195E+01  1.23735618501E+01  1.26868000596E+01  1.30079679322E+01
  1.33372662082E+01  1.36749007097E+01  1.40210824693E+01  1.43760278619E+01
  1.47399587399E+01  1.51131025719E+01  1.54956925851E+01  1.58879679105E+01
  1.62901737330E+01  1.67025614444E+01  1.71253888004E+01  1.75589200820E+01
  1.80034262601E+01  1.84591851657E+01  1.89264816630E+01  1.94056078274E+01
  1.98968631284E+01  2.04005546165E+01  2.09169971154E+01  2.14465134184E+01
  2.19894344904E+01  2.25460996748E+01  2.31168569054E+01  2.37020629241E+01
  2.43020835037E+01  2.49172936766E+01  2.55480779692E+01  2.61948306422E+01
  2.68579559370E+01  2.75378683286E+01  2.82349927843E+01  2.89497650296E+01
  2.96826318205E+01  3.04340512225E+01  3.12044928973E+01  3.19944383959E+01
  3.28043814600E+01  3.36348283304E+01  3.44862980634E+01  3.53593228553E+01
  3.62544483750E+01  3.71722341052E+01  3.81132536917E+01  3.90780953025E+01
  4.00673619950E+01  4.10816720930E+01  4.21216595733E+01  4.31879744621E+01
  4.42812832408E+01  4.54022692631E+01  4.65516331815E+01  4.77300933861E+01
  4.89383864528E+01  5.01772676042E+01  5.14475111812E+01  5.27499111274E+01
  5.40852814852E+01  5.54544569046E+01  5.68582931648E+01  5.82976677091E+01
  5.97734801934E+01
  </PP_R>
  <PP_RAB>
  9.15781944437E-05  9.38965074734E-05  9.62735088769E-05  9.87106843575E-05
  1.01209557229E-04  1.03771689368E-04  1.06398682192E-04  1.09092177655E-04
  1.11853859281E-04  1.14685453210E-04  1.17588729280E-04  1.20565502134E-04
  1.23617632352E-04  1.26747027614E-04  1.29955643894E-04  1.33245486682E-04
  1.36618612236E-04  1.40077128871E-04  1.43623198271E-04  1.47259036846E-04
  1.50986917112E-04  1.54809169116E-04  1.58728181890E-04  1.62746404946E-04
  1.66866349802E-04  1.71090591558E-04  1.75421770504E-04  1.79862593767E-04
  1.84415837006E-04  1.89084346147E-04  1.93871039159E-04  1.98778907881E-04
  2.03811019892E-04  2.08970520425E-04  2.14260634335E-04  2.19684668117E-04
  2.25246011968E-04  2.30948141908E-04  2.36794621956E-04  2.42789106350E-04
  2.48935341839E-04  2.55237170021E-04  2.61698529742E-04  2.68323459564E-04
  2.75116100282E-04  2.82080697519E-04  2.89221604374E-04  2.96543284147E-04
  3.04050313126E-04  3.11747383448E-04  3.19639306034E-04  3.27731013590E-04
  3.36027563699E-04  3.44534141973E-04  3.53256065302E-04  3.62198785171E-04
  3.71367891072E-04  3.80769113993E-04  3.90408330006E-04  4.00291563934E-04
  4.10424993119E-04  4.20814951287E-04  4.31467932497E-04  4.42390595210E-04
  4.53589766447E-04  4.65072446053E-04  4.76845811078E-04  4.88917220257E-04
  5.01294218614E-04  5.13984542176E-04  5.26996122809E-04  5.40337093174E-04
  5.54015791812E-04  5.68040768354E-04  5.82420788867E-04  5.97164841334E-04
  6.12282141265E-04  6.27782137466E-04  6.43674517939E-04  6.59969215939E-04
  6.76676416183E-04  6.93806561215E-04  7.11370357933E-04  7.29378784281E-04
  7.47843096113E-04  7.66774834225E-04  7.86185831568E-04  8.06088220649E-04
  8.26494441108E-04  8.47417247497E-04  8.68869717252E-04  8.90865258864E-04
  9.13417620264E-04  9.36540897410E-04  9.60249543104E-04  9.84558376021E-04
  1.00948258997E-03  1.03503776341E-03  1.06123986913E-03  1.08810528433E-03
  1.11565080074E-03  1.14389363523E-03  1.17285144047E-03  1.20254231604E-03
  1.23298481971E-03  1.26419797902E-03  1.29620130323E-03  1.32901479544E-03
  1.36265896517E-03  1.39715484111E-03  1.43252398430E-03  1.46878850162E-03
  1.50597105956E-03  1.54409489844E-03  1.58318384690E-03  1.62326233679E-03
  1.66435541849E-03  1.70648877650E-03  1.74968874556E-03  1.79398232703E-03
  1.83939720586E-03  1.88596176782E-03  1.93370511727E-03  1.98265709537E-03
  2.03284829870E-03  2.08431009839E-03  2.13707465974E-03  2.19117496232E-03
  2.24664482059E-03  2.30351890499E-03  2.36183276371E-03  2.42162284478E-03
  2.48292651896E-03  2.54578210304E-03  2.61022888381E-03  2.67630714259E-03
  2.74405818047E-03  2.81352434403E-03  2.88474905190E-03  2.95777682183E-03
  3.03265329856E-03  3.10942528233E-03  3.18814075811E-03  3.26884892565E-03
  3.35160023018E-03  3.43644639395E-03  3.52344044859E-03  3.61263676821E-03
  3.70409110341E-03  3.79786061612E-03  3.89400391536E-03  3.99258109380E-03
  4.09365376539E-03  4.19728510385E-03  4.30353988213E-03  4.41248451292E-03
  4.52418709018E-03  4.63871743164E-03  4.75614712250E-03  4.87654956014E-03
  5.00000000000E-03  5.12657560262E-03  5.25635548188E-03  5.38942075442E-03
  5.52585459038E-03  5.66574226533E-03  5.80917121364E-03  5.95623108306E-03
  6.10701379080E-03  6.26161358096E-03  6.42012708344E-03  6.58265337434E-03
  6.74929403788E-03  6.92015322990E-03  7.09533774297E-03  7.27495707309E-03
  7.45912348821E-03  7.64795209832E-03  7.84156092745E-03  8.04007098743E-03
  8.24360635350E-03  8.45229424190E-03  8.66626508934E-03  8.88565263457E-03
  9.11059400195E-03  9.34122978716E-03  9.57770414507E-03  9.82016487985E-03
  1.00687635374E-02  1.03236554998E-02  1.05850000831E-02  1.08529606359E-02
  1.11277046425E-02  1.14094038266E-02  1.16982342596E-02  1.19943764698E-02
  1.22980155558E-02  1.26093413018E-02  1.29285482966E-02  1.32558360549E-02
  1.35914091423E-02  1.39354773028E-02  1.42882555903E-02  1.46499645027E-02
  1.50208301197E-02  1.54010842446E-02  1.57909645484E-02  1.61907147192E-02
  1.66005846137E-02  1.70208304140E-02  1.74517147873E-02  1.78935070505E-02
  1.83464833381E-02  1.88109267750E-02  1.92871276535E-02  1.97753836146E-02
  2.02759998342E-02  2.07892892138E-02  2.13155725758E-02  2.18551788646E-02
  2.24084453517E-02  2.29757178465E-02  2.35573509130E-02  2.41537080906E-02
  2.47651621220E-02  2.53920951859E-02  2.60348991359E-02  2.66939757454E-02
  2.73697369586E-02  2.80626051485E-02  2.87730133800E-02  2.95014056816E-02
  3.02482373221E-02  3.10139750955E-02  3.17990976130E-02  3.26040956017E-02
  3.34294722114E-02  3.42757433295E-02  3.51434379029E-02  3.60330982691E-02
  3.69452804947E-02  3.78805547232E-02  3.88395055315E-02  3.98227322952E-02
  4.08308495628E-02  4.18644874406E-02  4.29242919859E-02  4.40109256109E-02
  4.51250674972E-02  4.62674140195E-02  4.74386791818E-02  4.86395950628E-02
  4.98709122741E-02  5.11334004290E-02  5.24278486236E-02  5.37550659304E-02
  5.51158819032E-02  5.65111470964E-02  5.79417335961E-02  5.94085355655E-02
  6.09124698035E-02  6.24544763180E-02  6.40355189133E-02  6.56565857925E-02
  6.73186901750E-02  6.90228709303E-02  7.07701932269E-02  7.25617491980E-02
  7.43986586244E-02  7.62820696343E-02  7.82131594209E-02  8.01931349783E-02
  8.22232338555E-02  8.43047249304E-02  8.64389092028E-02  8.86271206073E-02
  9.08707268472E-02  9.31711302495E-02  9.55297686412E-02  9.79481162480E-02
  1.00427684616E-01  1.02970023556E-01  1.05576722113E-01  1.08249409558E-01
  1.10989756407E-01  1.13799475468E-01  1.16680322905E-01  1.19634099342E-01
  1.22662650986E-01  1.25767870779E-01  1.28951699586E-01  1.32216127403E-01
  1.35563194603E-01  1.38994993213E-01  1.42513668219E-01  1.46121418906E-01
  1.49820500237E-01  1.53613224258E-01  1.57501961544E-01  1.61489142683E-01
  1.65577259793E-01  1.69768868081E-01  1.74066587438E-01  1.78473104078E-01
  1.82991172218E-01  1.87623615798E-01  1.92373330245E-01  1.97243284286E-01
  2.02236521800E-01  2.07356163724E-01  2.12605410000E-01  2.17987541579E-01
  2.23505922467E-01  2.29164001832E-01  2.34965316158E-01  2.40913491455E-01
  2.47012245528E-01  2.53265390294E-01  2.59676834174E-01  2.66250584529E-01
  2.72990750166E-01  2.79901543908E-01  2.86987285227E-01  2.94252402942E-01
  3.01701437987E-01  3.09339046252E-01  3.17170001491E-01  3.25199198305E-01
  3.33431655205E-01  3.41872517743E-01  3.50527061733E-01  3.59400696548E-01
  3.68498968498E-01  3.77827564299E-01  3.87392314626E-01  3.97199197761E-01
  4.07254343325E-01  4.17564036110E-01  4.28134720011E-01  4.38973002049E-01
  4.50085656503E-01  4.61479629143E-01  4.73162041575E-01  4.85140195685E-01
  4.97421578210E-01  5.10013865413E-01  5.22924927886E-01  5.36162835460E-01
  5.49735862261E-01  5.63652491870E-01  5.77921422636E-01  5.92551573104E-01
  6.07552087594E-01  6.22932341916E-01  6.38701949230E-01  6.54870766054E-01
  6.71448898425E-01  6.88446708214E-01  7.05874819607E-01  7.23744125741E-01
  7.42065795513E-01  7.60851280563E-01  7.80112322432E-01  7.99860959897E-01
  8.20109536500E-01  8.40870708259E-01  8.62157451584E-01  8.83983071382E-01
  9.06361209376E-01  9.29305852630E-01  9.52831342293E-01  9.76952382563E-01
  1.00168404987E+00  1.02704180232E+00  1.05304148933E+00  1.07969936155E+00
  1.10703208102E+00  1.13505673158E+00  1.16379082954E+00  1.19325233465E+00
  1.22345966132E+00  1.25443169010E+00  1.28618777953E+00  1.31874777818E+00
  1.35213203713E+00  1.38636142262E+00  1.42145732912E+00  1.45744169273E+00
  1.49433700484E+00
  </PP_RAB>
</PP_MESH>


<PP_LOCAL>
 -1.73315645970E+01 -1.73316016265E+01 -1.73316405540E+01 -1.73316814766E+01
 -1.73317244967E+01 -1.73317697217E+01 -1.73318172645E+01 -1.73318672440E+01
 -1.73319197848E+01 -1.73319750183E+01 -1.73320330823E+01 -1.73320941219E+01
 -1.73321582894E+01 -1.73322257451E+01 -1.73322966574E+01 -1.73323712032E+01
 -1.73324495687E+01 -1.73325319494E+01 -1.73326185509E+01 -1.73327095893E+01
 -1.73328052918E+01 -1.73329058971E+01 -1.73330116561E+01 -1.73331228327E+01
 -1.73332397041E+01 -1.73333625617E+01 -1.73334917118E+01 -1.73336274764E+01
 -1.73337701937E+01 -1.73339202196E+01 -1.73340779277E+01 -1.73342437108E+01
 -1.73344179820E+01 -1.73346011751E+01 -1.73347937461E+01 -1.73349961744E+01
 -1.73352089637E+01 -1.73354326433E+01 -1.73356677695E+01 -1.73359149269E+01
 -1.73361747299E+01 -1.73364478240E+01 -1.73367348876E+01 -1.73370366335E+01
 -1.73373538108E+01 -1.73376872065E+01 -1.73380376475E+01 -1.73384060026E+01
 -1.73387931849E+01 -1.73392001533E+01 -1.73396279155E+01 -1.73400775301E+01
 -1.73405501090E+01 -1.73410468205E+01 -1.73415688917E+01 -1.73421176115E+01
 -1.73426943338E+01 -1.73433004806E+01 -1.73439375452E+01 -1.73446070960E+01
 -1.73453107802E+01 -1.73460503271E+01 -1.73468275530E+01 -1.73476443646E+01
 -1.73485027639E+01 -1.73494048524E+01 -1.73503528365E+01 -1.73513490320E+01
 -1.73523958694E+01 -1.73534958998E+01 -1.73546517999E+01 -1.73558663789E+01
 -1.73571425837E+01 -1.73584835062E+01 -1.73598923895E+01 -1.73613726352E+01
 -1.73629278109E+01 -1.73645616570E+01 -1.73662780956E+01 -1.73680812380E+01
 -1.73699753935E+01 -1.73719650778E+01 -1.73740550229E+01 -1.73762501858E+01
 -1.73785557584E+01 -1.73809771777E+01 -1.73835201363E+01 -1.73861905928E+01
 -1.73889947826E+01 -1.73919392298E+01 -1.73950307581E+01 -1.73982765028E+01
 -1.74016839229E+01 -1.74052608133E+01 -1.74090153170E+01 -1.74129559380E+01
 -1.74170915537E+01 -1.74214314276E+01 -1.74259852222E+01 -1.74307630113E+01
 -1.74357752929E+01 -1.74410330011E+01 -1.74465475182E+01 -1.74523306859E+01
 -1.74583948168E+01 -1.74647527039E+01 -1.74714176303E+01 -1.74784033774E+01
 -1.74857242321E+01 -1.74933949916E+01 -1.75014309683E+01 -1.75098479906E+01
 -1.75186624029E+01 -1.75278910620E+01 -1.75375513313E+01 -1.75476610704E+01
 -1.75582386219E+01 -1.75693027928E+01 -1.75808728314E+01 -1.75929683984E+01
 -1.76056095315E+01 -1.76188166027E+01 -1.76326102686E+01 -1.76470114102E+01
 -1.76620410646E+01 -1.76777203445E+01 -1.76940703463E+01 -1.77111120446E+01
 -1.77288661720E+01 -1.77473530826E+01 -1.77665925983E+01 -1.77866038347E+01
 -1.78074050066E+01 -1.78290132094E+01 -1.78514441762E+01 -1.78747120060E+01
 -1.78988288634E+01 -1.79238046453E+01 -1.79496466128E+01 -1.79763589856E+01
 -1.80039424963E+01 -1.80323939017E+01 -1.80617054475E+01 -1.80918642852E+01
 -1.81228518362E+01 -1.81546431023E+01 -1.81872059185E+01 -1.82205001460E+01
 -1.82544768034E+01 -1.82890771340E+01 -1.83242316075E+01 -1.83598588554E+01
 -1.83958645403E+01 -1.84321401585E+01 -1.84685617789E+01 -1.85049887207E+01
 -1.85412621738E+01 -1.85772037685E+01 -1.86126141021E+01 -1.86472712333E+01
 -1.86809291560E+01 -1.87133162702E+01 -1.87441338664E+01 -1.87730546488E+01
 -1.87997213212E+01 -1.88237452689E+01 -1.88447053697E+01 -1.88621469768E+01
 -1.88755811168E+01 -1.88844839564E+01 -1.88882965923E+01 -1.88864252271E+01
 -1.88782417988E+01 -1.88630851354E+01 -1.88402627112E+01 -1.88090530845E+01
 -1.87687090977E+01 -1.87184619233E+01 -1.86575260343E+01 -1.85851051769E+01
 -1.85003994130E+01 -1.84026132911E+01 -1.82909651884E+01 -1.81646978470E+01
 -1.80230901026E+01 -1.78654697727E+01 -1.76912276356E+01 -1.74998323884E+01
 -1.72908464229E+01 -1.70639422060E+01 -1.68189189895E+01 -1.65557195139E+01
 -1.62744463038E+01 -1.59753770909E+01 -1.56589788363E+01 -1.53259197718E+01
 -1.49770788347E+01 -1.46135518429E+01 -1.42366537470E+01 -1.38479163169E+01
 -1.34490806632E+01 -1.30420840805E+01 -1.26290408182E+01 -1.22122165488E+01
 -1.17939965062E+01 -1.13768475106E+01 -1.09632743746E+01 -1.05557714876E+01
 -1.01567706948E+01 -9.76858690018E+00 -9.39336312078E+00 -9.03301696749E+00
 -8.68919071616E+00 -8.36320722743E+00 -8.05603395927E+00 -7.76825717271E+00
 -7.50006814771E+00 -7.25126280086E+00 -7.02125553584E+00 -6.80910748227E+00
 -6.61356851943E+00 -6.43313168194E+00 -6.26609775684E+00 -6.11064716511E+00
 -5.96491563566E+00 -5.82706978392E+00 -5.69537854936E+00 -5.56827655994E+00
 -5.44441589223E+00 -5.32270337455E+00 -5.20232150430E+00 -5.08273216035E+00
 -4.96366350699E+00 -4.84508170888E+00 -4.72715019940E+00 -4.61018015999E+00
 -4.49457648003E+00 -4.38078370115E+00 -4.26923626960E+00 -4.16031682862E+00
 -4.05432533105E+00 -3.95146054013E+00 -3.85181414682E+00 -3.75537642576E+00
 -3.66205123615E+00 -3.57167738803E+00 -3.48405302888E+00 -3.39895979099E+00
 -3.31618393827E+00 -3.23553255847E+00 -3.15684381795E+00 -3.07999126412E+00
 -3.00488297543E+00 -2.93145690962E+00 -2.85967403816E+00 -2.78951079270E+00
 -2.72095205576E+00 -2.65398550418E+00 -2.58859766620E+00 -2.52477167099E+00
 -2.46248640639E+00 -2.40171667325E+00 -2.34243391474E+00 -2.28460716958E+00
 -2.22820400611E+00 -2.17319130302E+00 -2.11953583036E+00 -2.06720464058E+00
 -2.01616530738E+00 -1.96638605668E+00 -1.91783582847E+00 -1.87048429845E+00
 -1.82430187815E+00 -1.77925970473E+00 -1.73532962621E+00 -1.69248418511E+00
 -1.65069660169E+00 -1.60994075738E+00 -1.57019117845E+00 -1.53142302012E+00
 -1.49361205104E+00 -1.45673463810E+00 -1.42076773173E+00 -1.38568885145E+00
 -1.35147607181E+00 -1.31810800870E+00 -1.28556380601E+00 -1.25382312255E+00
 -1.22286611935E+00 -1.19267344729E+00 -1.16322623495E+00 -1.13450607688E+00
 -1.10649502204E+00 -1.07917556260E+00 -1.05253062303E+00 -1.02654354935E+00
 -1.00119809881E+00 -9.76478429673E-01 -9.52369091342E-01 -9.28855014695E-01
 -9.05921502670E-01 -8.83554221073E-01 -8.61739189627E-01 -8.40462773227E-01
 -8.19711673419E-01 -7.99472920091E-01 -7.79733863363E-01 -7.60482165682E-01
 -7.41705794110E-01 -7.23393012805E-01 -7.05532375680E-01 -6.88112719258E-01
 -6.71123155685E-01 -6.54553065931E-01 -6.38392093151E-01 -6.22630136211E-01
 -6.07257343374E-01 -5.92264106145E-01 -5.77641053262E-01 -5.63379044841E-01
 -5.49469166662E-01 -5.35902724599E-01 -5.22671239185E-01 -5.09766440309E-01
 -4.97180262053E-01 -4.84904837645E-01 -4.72932494546E-01 -4.61255749651E-01
 -4.49867304614E-01 -4.38760041288E-01 -4.27927017270E-01 -4.17361461568E-01
 -4.07056770366E-01 -3.97006502896E-01 -3.87204377414E-01 -3.77644267273E-01
 -3.68320197092E-01 -3.59226339024E-01 -3.50357009112E-01 -3.41706663735E-01
 -3.33269896147E-01 -3.25041433093E-01 -3.17016131516E-01 -3.09188975340E-01
 -3.01555072339E-01 -2.94109651075E-01 -2.86848057916E-01 -2.79765754132E-01
 -2.72858313051E-01 -2.66121417298E-01 -2.59550856094E-01 -2.53142522624E-01
 -2.46892411471E-01 -2.40796616112E-01 -2.34851326477E-01 -2.29052826566E-01
 -2.23397492128E-01 -2.17881788394E-01 -2.12502267872E-01 -2.07255568184E-01
 -2.02138409973E-01 -1.97147594848E-01 -1.92280003388E-01 -1.87532593189E-01
 -1.82902396965E-01 -1.78386520694E-01 -1.73982141805E-01 -1.69686507419E-01
 -1.65496932623E-01 -1.61410798797E-01 -1.57425551975E-01 -1.53538701248E-01
 -1.49747817207E-01 -1.46050530427E-01 -1.42444529982E-01 -1.38927562006E-01
 -1.35497428278E-01 -1.32151984854E-01 -1.28889140723E-01 -1.25706856500E-01
 -1.22603143154E-01 -1.19576060764E-01 -1.16623717304E-01 -1.13744267464E-01
 -1.10935911494E-01 -1.08196894080E-01 -1.05525503247E-01 -1.02920069289E-01
 -1.00378963724E-01
</PP_LOCAL>


<PP_NONLOCAL>
  <PP_BETA>
    1    0             Beta    L
   318
  2.65956846152E-02  2.72690319788E-02  2.79594333328E-02  2.86673184260E-02
  2.93931298894E-02  3.01373232397E-02  3.09003632138E-02  3.16827292761E-02
  3.24849082847E-02  3.33074073369E-02  3.41507372645E-02  3.50154273140E-02
  3.59020196488E-02  3.68110711899E-02  3.77431499536E-02  3.86988387273E-02
  3.96787387453E-02  4.06834623603E-02  4.17136403889E-02  4.27699184527E-02
  4.38529606568E-02  4.49634422639E-02  4.61020643810E-02  4.72695392966E-02
  4.84665996668E-02  4.96939948610E-02  5.09525001504E-02  5.22429020495E-02
  5.35660111757E-02  5.49226604346E-02  5.63137032077E-02  5.77400097052E-02
  5.92024816691E-02  6.07020358875E-02  6.22396152315E-02  6.38161905213E-02
  6.54327513867E-02  6.70903173102E-02  6.87899339985E-02  7.05326697531E-02
  7.23196246912E-02  7.41519271226E-02  7.60307336051E-02  7.79572289985E-02
  7.99326320313E-02  8.19581898619E-02  8.40351854881E-02  8.61649323197E-02
  8.83487797637E-02  9.05881114789E-02  9.28843491413E-02  9.52389470395E-02
  9.76534013629E-02  1.00129248483E-01  1.02668061414E-01  1.05271459121E-01
  1.07941099333E-01  1.10678686041E-01  1.13485965998E-01  1.16364734412E-01
  1.19316835144E-01  1.22344157248E-01  1.25448646221E-01  1.28632293228E-01
  1.31897148228E-01  1.35245312909E-01  1.38678950182E-01  1.42200275325E-01
  1.45811571036E-01  1.49515174958E-01  1.53313494780E-01  1.57209003173E-01
  1.61204236427E-01  1.65301809656E-01  1.69504402653E-01  1.73814775172E-01
  1.78235762050E-01  1.82770277563E-01  1.87421327182E-01  1.92191986296E-01
  1.97085423108E-01  2.02104903214E-01  2.07253779534E-01  2.12535530131E-01
  2.17953685752E-01  2.23511922976E-01  2.29213991907E-01  2.35063791127E-01
  2.41065313955E-01  2.47222668406E-01  2.53540097252E-01  2.60021998238E-01
  2.66672852320E-01  2.73497299343E-01  2.80500158652E-01  2.87686357710E-01
  2.95061008258E-01  3.02629353645E-01  3.10396826915E-01  3.18369053798E-01
  3.26551800512E-01  3.34951069359E-01  3.43573046929E-01  3.52424089357E-01
  3.61510837127E-01  3.70840089958E-01  3.80418922099E-01  3.90254631543E-01
  4.00354781937E-01  4.10727226258E-01  4.21380038153E-01  4.32321610154E-01
  4.43560641070E-01  4.55106160696E-01  4.66967480496E-01  4.79154274363E-01
  4.91676604030E-01  5.04544870280E-01  5.17769838539E-01  5.31362757755E-01
  5.45335200087E-01  5.59699254385E-01  5.74467440251E-01  5.89652733633E-01
  6.05268610895E-01  6.21329092655E-01  6.37848693574E-01  6.54842483638E-01
  6.72326111301E-01  6.90315825591E-01  7.08828440481E-01  7.27881448057E-01
  7.47492941778E-01  7.67681706805E-01  7.88467156848E-01  8.09869437719E-01
  8.31909338193E-01  8.54608404672E-01  8.77988823436E-01  9.02073562752E-01
  9.26886223333E-01  9.52451128268E-01  9.78793251978E-01  1.00593825371E+00
  1.03391234663E+00  1.06274234549E+00  1.09245558511E+00  1.12307982227E+00
  1.15464313834E+00  1.18717393754E+00  1.22070070986E+00  1.25525194228E+00
  1.29085594391E+00  1.32754067886E+00  1.36533346708E+00  1.40426086221E+00
  1.44434817513E+00  1.48561936365E+00  1.52809642182E+00  1.57179918773E+00
  1.61674470066E+00  1.66294675276E+00  1.71041531645E+00  1.75915590269E+00
  1.80916878641E+00  1.86044831475E+00  1.91298201726E+00  1.96674975461E+00
  2.02172260602E+00  2.07786213340E+00  2.13511848792E+00  2.19343051439E+00
  2.25272303049E+00  2.31290647605E+00  2.37387570814E+00  2.43550776218E+00
  2.49766098368E+00  2.56017395345E+00  2.62286325264E+00  2.68552305610E+00
  2.74792343248E+00  2.80980955595E+00  2.87090069678E+00  2.93088924758E+00
  2.98944060358E+00  3.04619317734E+00  3.10075843630E+00  3.15272159948E+00
  3.20164286635E+00  3.24705959006E+00  3.28848786517E+00  3.32542609115E+00
  3.35735858791E+00  3.38375938755E+00  3.40409836797E+00  3.41784627499E+00
  3.42448176543E+00  3.42349792734E+00  3.41441070695E+00  3.39676678590E+00
  3.37015275744E+00  3.33420348375E+00  3.28861197827E+00  3.23313826460E+00
  3.16761885280E+00  3.09197629930E+00  3.00622770532E+00  2.91049395303E+00
  2.80500840217E+00  2.69012471701E+00  2.56632533507E+00  2.43422847731E+00
  2.29459514154E+00  2.14833450014E+00  1.99650759618E+00  1.84032846253E+00
  1.68116146270E+00  1.52051328177E+00  1.36001820677E+00  1.20141462839E+00
  1.04651203672E+00  8.97146796927E-01  7.55127098151E-01  6.22167924578E-01
  4.99818718605E-01  3.89388001296E-01  2.91870566641E-01  2.07884386532E-01
  1.37624605567E-01  8.08415198725E-02  3.68479976576E-02  4.55887543490E-03
 -1.74386126236E-02 -3.07883482104E-02 -3.72514785962E-02 -3.85866992708E-02
 -3.64374246012E-02 -3.22379490380E-02 -2.71481638267E-02 -2.20222664133E-02
 -1.74119679078E-02 -1.35997801702E-02 -1.06540171912E-02 -8.49485469810E-03
 -6.96052428068E-03 -5.86438936171E-03 -5.03677240758E-03 -4.34917288566E-03
 -3.72209033332E-03 -3.12030739928E-03 -2.54078481588E-03 -1.99824408727E-03
 -1.51238106638E-03 -1.09897807916E-03 -7.65508128387E-04 -5.10558652950E-04
 -3.25736945792E-04 -1.98624445552E-04 -1.15651682686E-04 -6.42392291686E-05
 -3.40019189674E-05 -1.71287583692E-05 -8.20093154187E-06 -3.72594008948E-06
 -1.60356015441E-06 -6.52484957996E-07 -2.50476410102E-07 -9.05033407390E-08
 -3.07021741073E-08 -9.75215861106E-09 -2.89198006459E-09 -7.98185955852E-10
 -2.04358934509E-10 -4.83666613212E-11 -1.05427090125E-11 -2.10829086855E-12
 -3.85168234149E-13 -6.40416795328E-14 -9.66913665579E-15 -1.32643871886E-15
 -1.37454228000E-16  0.00000000000E+00  0.00000000000E+00  0.00000000000E+00
  0.00000000000E+00  0.00000000000E+00  0.00000000000E+00  0.00000000000E+00
  0.00000000000E+00  0.00000000000E+00  0.00000000000E+00  0.00000000000E+00
  0.00000000000E+00  0.00000000000E+00  0.00000000000E+00  0.00000000000E+00
  0.00000000000E+00  0.00000000000E+00  0.00000000000E+00  0.00000000000E+00
  0.00000000000E+00  0.00000000000E+00  0.00000000000E+00  0.00000000000E+00
  0.00000000000E+00  0.00000000000E+00  0.00000000000E+00  0.00000000000E+00
  0.00000000000E+00  0.00000000000E+00  0.00000000000E+00  0.00000000000E+00
  0.00000000000E+00  0.00000000000E+00  0.00000000000E+00  0.00000000000E+00
  0.00000000000E+00  0.00000000000E+00
  </PP_BETA>
  <PP_DIJ>
    1                  Number of nonzero Dij