<PP_INFO>
Generated using ld1 code
Author: Stefano de Gironcoli    Generation date: before 2002
Info: Be  LDA with 1s core hole, 2s2 VonBarth-Car, l=1 local
    0        The Pseudo was generated with a Non-Relativistic Calculation
  0.00000000000E+00    Local Potential cutoff radius
nl pn  l   occ               Rcut            Rcut US             E pseu
2S  0  0  2.00      0.00000000000      0.00000000000      0.00000000000
2P  0  1  1.00      0.00000000000      0.00000000000      0.00000000000
</PP_INFO>


<PP_HEADER>
   0                   Version Number
  Be                   Element
   NC                  Norm - Conserving pseudopotential
    T                  Nonlinear Core Correction
 SLA  PZ   NOGX NOGC   PZ   Exchange-Correlation functional
    3.00000000000      Z valence
    0.00000000000      Total energy
  0.0000000  0.0000000 Suggested cutoff for wfc and rho
    0                  Max angular momentum component
  153                  Number of points in mesh
    2    1             Number of Wavefunctions, Number of Projectors
 Wavefunctions         nl  l   occ
                       2S  0  2.00
                       2P  1  1.00
</PP_HEADER>


<PP_MESH>
  <PP_R>
  4.57890972218E-03  4.87422402715E-03  5.18858446842E-03  5.52321941627E-03
  5.87943646400E-03  6.25862753749E-03  6.66227433409E-03  7.09195411243E-03
  7.54934585558E-03  8.03623683172E-03  8.55452957792E-03  9.10624933434E-03
  9.69355195793E-03  1.03187323464E-02  1.09842334059E-02  1.16926555960E-02
  1.24467670920E-02  1.32495146008E-02  1.41040348759E-02  1.50136669738E-02
  1.59819653017E-02  1.70127135063E-02  1.81099392586E-02  1.92779299921E-02
  2.05212496560E-02  2.18447565489E-02  2.32536223027E-02  2.47533520910E-02
  2.63498061405E-02  2.80492226301E-02  2.98582420667E-02  3.17839332330E-02
  3.38338208092E-02  3.60159147754E-02  3.83387417112E-02  4.08113781135E-02
  4.34434858626E-02  4.62453499768E-02  4.92279188010E-02  5.24028467878E-02
  5.57825400371E-02  5.93802047739E-02  6.32098989512E-02  6.72865871823E-02
  7.16261992150E-02  7.62456921778E-02  8.11631168396E-02  8.63976881442E-02
  9.19698602929E-02  9.79014066692E-02  1.04215504920E-01  1.10936827520E-01
  1.18091638185E-01  1.25707894493E-01  1.33815357130E-01  1.42445706183E-01
  1.51632664928E-01  1.61412131607E-01  1.71822319698E-01  1.82903907237E-01
  1.94700195768E-01  2.07257279545E-01  2.20624225646E-01  2.34853265703E-01
  2.50000000000E-01  2.66123614729E-01  2.83287113267E-01  3.01557562355E-01
  3.21006354172E-01  3.41709485293E-01  3.63747853655E-01  3.87207574659E-01
  4.12180317675E-01  4.38763664240E-01  4.67061489358E-01  4.97184367396E-01
  5.29250004153E-01  5.63383696803E-01  5.99718823492E-01  6.38397364516E-01
  6.79570457115E-01  7.23398986043E-01  7.70054212230E-01  8.19718441985E-01
  8.72585739365E-01  9.28862684485E-01  9.88769180730E-01  1.05253931404E+00
  1.12042226758E+00  1.19268329549E+00  1.26960475930E+00  1.35148723129E+00
  1.43865066900E+00  1.53143566547E+00  1.63020478008E+00  1.73534395530E+00
  1.84726402473E+00  1.96640231849E+00  2.09322437203E+00  2.22822574530E+00
  2.37193395909E+00  2.52491055637E+00  2.68775329652E+00  2.86109849108E+00
  3.04562349018E+00  3.24204932924E+00  3.45114354652E+00  3.67372318220E+00
  3.91065797105E+00  4.16287374090E+00  4.43135603037E+00  4.71715393982E+00
  5.02138423080E+00  5.34523568978E+00  5.68997377338E+00  6.05694555315E+00
  6.44758497930E+00  6.86341848387E+00  7.30607094531E+00  7.77727203774E+00
  8.27886298967E+00  8.81280377865E+00  9.38118078990E+00  9.98621496896E+00
  1.06302705000E+01  1.13158640441E+01  1.20456745728E+01  1.28225538366E+01
  1.36495375083E+01  1.45298570444E+01  1.54669523126E+01  1.64644850331E+01
  1.75263530867E+01  1.86567057458E+01  1.98599598881E+01  2.11408172552E+01
  2.25042828251E+01  2.39556843693E+01  2.55006932707E+01  2.71453466852E+01
  2.88960711318E+01  3.07597076043E+01  3.27435383027E+01  3.48553150886E+01
  3.71032897756E+01  3.94962463738E+01  4.20435354130E+01  4.47551104804E+01
  4.76415671147E+01  5.07141842077E+01  5.39849680777E+01  5.74666993835E+01
  6.11729830661E+01
  </PP_R>
  <PP_RAB>
  2.86181857636E-04  3.04639001697E-04  3.24286529277E-04  3.45201213517E-04
  3.67464779000E-04  3.91164221093E-04  4.16392145881E-04  4.43247132027E-04
  4.71834115974E-04  5.02264801982E-04  5.34658098620E-04  5.69140583396E-04
  6.05846997371E-04  6.44920771653E-04  6.86514587866E-04  7.30790974749E-04
  7.77922943248E-04  8.28094662552E-04  8.81502179747E-04  9.38354185864E-04
  9.98872831355E-04  1.06329459414E-03  1.13187120366E-03  1.20487062450E-03
  1.28257810350E-03  1.36529728430E-03  1.45335139392E-03  1.54708450568E-03
  1.64686288378E-03  1.75307641438E-03  1.86614012917E-03  1.98649582706E-03
  2.11461380057E-03  2.25099467346E-03  2.39617135695E-03  2.55071113209E-03
  2.71521786641E-03  2.89033437355E-03  3.07674492507E-03  3.27517792424E-03
  3.48640875232E-03  3.71126279837E-03  3.95061868445E-03  4.20541169889E-03
  4.47663745094E-03  4.76535576111E-03  5.07269480247E-03  5.39985550902E-03
  5.74811626830E-03  6.11883791682E-03  6.51346905748E-03  6.93355172002E-03
  7.38072738658E-03  7.85674340580E-03  8.36345982061E-03  8.90285663642E-03
  9.47704155801E-03  1.00882582254E-02  1.07388949811E-02  1.14314942023E-02
  1.21687622355E-02  1.29535799716E-02  1.37890141029E-02  1.46783291065E-02
  1.56250000000E-02  1.66327259206E-02  1.77054445792E-02  1.88473476472E-02
  2.00628971357E-02  2.13568428308E-02  2.27342408534E-02  2.42004734162E-02
  2.57612698547E-02  2.74227290150E-02  2.91913430849E-02  3.10740229622E-02
  3.30781252596E-02  3.52114810502E-02  3.74824264682E-02  3.98998352822E-02
  4.24731535697E-02  4.52124366277E-02  4.81283882643E-02  5.12324026240E-02
  5.45366087103E-02  5.80539177803E-02  6.17980737956E-02  6.57837071272E-02
  7.00263917240E-02  7.45427059682E-02  7.93502974559E-02  8.44679519553E-02
  8.99156668126E-02  9.57147290919E-02  1.01887798755E-01  1.08458997206E-01
  1.15454001546E-01  1.22900144905E-01  1.30826523252E-01  1.39264109081E-01
  1.48245872443E-01  1.57806909773E-01  1.67984581032E-01  1.78818655693E-01
  1.90351468136E-01  2.02628083078E-01  2.15696471657E-01  2.29607698887E-01
  2.44416123190E-01  2.60179608806E-01  2.76959751898E-01  2.94822121239E-01
  3.13836514425E-01  3.34077230611E-01  3.55623360836E-01  3.78559097072E-01
  4.02974061206E-01  4.28963655242E-01  4.56629434082E-01  4.86079502359E-01
  5.17428936855E-01  5.50800236165E-01  5.86323799369E-01  6.24138435560E-01
  6.64391906251E-01  7.07241502754E-01  7.52854660798E-01  8.01409614790E-01
  8.53096094268E-01  9.08116065273E-01  9.66684519537E-01  1.02903031457E+00
  1.09539706792E+00  1.16604410911E+00  1.24124749300E+00  1.32130107845E+00
  1.40651767657E+00  1.49723027308E+00  1.59379332942E+00  1.69658416782E+00
  1.80600444574E+00  1.92248172527E+00  2.04647114392E+00  2.17845719304E+00
  2.31895561098E+00  2.46851539836E+00  2.62772096331E+00  2.79719440503E+00
  2.97759794467E+00  3.16963651298E+00  3.37406050485E+00  3.59166871147E+00
  3.82331144163E+00
  </PP_RAB>
</PP_MESH>


<PP_NLCC>
  2.26441048564E-01  2.26440522333E-01  2.26439926007E-01  2.26439250243E-01
  2.26438484454E-01  2.26437616640E-01  2.26436633198E-01  2.26435518711E-01
  2.26434255700E-01  2.26432824354E-01  2.26431202210E-01  2.26429363804E-01
  2.26427280261E-01  2.26424918842E-01  2.26422242417E-01  2.26419208879E-01
  2.26415770463E-01  2.26411872988E-01  2.26407454979E-01  2.26402446676E-01
  2.26396768903E-01  2.26390331777E-01  2.26383033236E-01  2.26374757361E-01
  2.26365372447E-01  2.26354728813E-01  2.26342656273E-01  2.26328961253E-01
  2.26313423463E-01  2.26295792083E-01  2.26275781354E-01  2.26253065493E-01
  2.26227272815E-01  2.26197978903E-01  2.26164698692E-01  2.26126877227E-01
  2.26083878887E-01  2.26034974757E-01  2.25979327808E-01  2.25915975450E-01
  2.25843808929E-01  2.25761548937E-01  2.25667716662E-01  2.25560599321E-01
  2.25438209039E-01  2.25298233661E-01  2.25137977817E-01  2.24954292163E-01
  2.24743488351E-01  2.24501236743E-01  2.24222443367E-01  2.23901101955E-01
  2.23530116263E-01  2.23101087161E-01  2.22604058351E-01  2.22027214055E-01
  2.21356521833E-01  2.20575313942E-01  2.19663801839E-01  2.18598520844E-01
  2.17351706353E-01  2.15890610056E-01  2.14176775472E-01  2.12165307900E-01
  2.09804195982E-01  2.07033771738E-01  2.03786434060E-01  1.99986807159E-01
  1.95552558450E-01  1.90396154839E-01  1.84427882675E-01  1.77560478712E-01
  1.69715693124E-01  1.60832998893E-01  1.50880436524E-01  1.39867202801E-01
  1.27857036520E-01  1.14980741830E-01  1.01445409119E-01  8.75372328054E-02
  7.36145852838E-02  6.00885681596E-02  4.73899796657E-02  3.59246384139E-02
  2.60229316094E-02  1.78932701824E-02  1.15911715764E-02  7.01419522339E-03
  3.92707586145E-03  2.01226937149E-03  9.32175511639E-04  3.85014333936E-04
  1.39575004432E-04  4.36294553223E-05  1.15257666097E-05  2.51539131510E-06
  4.41990205530E-07  6.07352107891E-08  6.31488236207E-09  4.78592436726E-10
  2.53437536489E-11  8.93864932093E-13  1.98882871883E-14  0.00000000000E+00
  0.00000000000E+00  0.00000000000E+00  0.00000000000E+00  0.00000000000E+00
  0.00000000000E+00  0.00000000000E+00  0.00000000000E+00  0.00000000000E+00
  0.00000000000E+00  0.00000000000E+00  0.00000000000E+00  0.00000000000E+00
  0.00000000000E+00  0.00000000000E+00  0.00000000000E+00  0.00000000000E+00
  0.00000000000E+00  0.00000000000E+00  0.00000000000E+00  0.00000000000E+00
  0.00000000000E+00  0.00000000000E+00  0.00000000000E+00  0.00000000000E+00
  0.00000000000E+00  0.00000000000E+00  0.00000000000E+00  0.00000000000E+00
  0.00000000000E+00  0.00000000000E+00  0.00000000000E+00  0.00000000000E+00
  0.00000000000E+00  0.00000000000E+00  0.00000000000E+00  0.00000000000E+00
  0.00000000000E+00  0.00000000000E+00  0.00000000000E+00  0.00000000000E+00
  0.00000000000E+00  0.00000000000E+00  0.00000000000E+00  0.00000000000E+00
  0.00000000000E+00  0.00000000000E+00  0.00000000000E+00  0.00000000000E+00
  0.00000000000E+00
</PP_NLCC>


<PP_LOCAL>
 -1.69860290588E+01 -1.69859602317E+01 -1.69858822408E+01 -1.69857938662E+01
 -1.69856937254E+01 -1.69855802521E+01 -1.69854516712E+01 -1.69853059717E+01
 -1.69851408746E+01 -1.69849537978E+01 -1.69847418155E+01 -1.69845016127E+01
 -1.69842294329E+01 -1.69839210203E+01 -1.69835715526E+01 -1.69831755659E+01
 -1.69827268700E+01 -1.69822184511E+01 -1.69816423629E+01 -1.69809896027E+01
 -1.69802499712E+01 -1.69794119136E+01 -1.69784623404E+01 -1.69773864233E+01
 -1.69761673656E+01 -1.69747861411E+01 -1.69732212000E+01 -1.69714481348E+01
 -1.69694393039E+01 -1.69671634049E+01 -1.69645849929E+01 -1.69616639362E+01
 -1.69583548012E+01 -1.69546061589E+01 -1.69503598010E+01 -1.69455498575E+01
 -1.69401018009E+01 -1.69339313261E+01 -1.69269430891E+01 -1.69190292901E+01
 -1.69100680824E+01 -1.68999217884E+01 -1.68884349029E+01 -1.68754318605E+01
 -1.68607145466E+01 -1.68440595266E+01 -1.68252149716E+01 -1.68038972569E+01
 -1.67797872126E+01 -1.67525260093E+01 -1.67217106650E+01 -1.66868891707E+01
 -1.66475552399E+01 -1.66031427058E+01 -1.65530196090E+01 -1.64964820497E+01
 -1.64327479122E+01 -1.63609506211E+01 -1.62801331472E+01 -1.61892425590E+01
 -1.60871255094E+01 -1.59725251655E+01 -1.58440802222E+01 -1.57003268069E+01
 -1.55397042632E+01 -1.53605660034E+01 -1.51611968335E+01 -1.49398383576E+01
 -1.46947242461E+01 -1.44241272563E+01 -1.41264198812E+01 -1.38001502891E+01
 -1.34441347219E+01 -1.30575666136E+01 -1.26401412691E+01 -1.21921928534E+01
 -1.17148376240E+01 -1.12101137488E+01 -1.06811038481E+01 -1.01320219321E+01
 -9.56824237910E+00 -8.99624612265E+00 -8.42345980711E+00 -7.85796915968E+00
 -7.30809995868E+00 -6.78187978508E+00 -6.28642055803E+00 -5.82729222802E+00
 -5.40798493026E+00 -5.02957012090E+00 -4.69065940073E+00 -4.38771504470E+00
 -4.11569051576E+00 -3.86888894519E+00 -3.64185344258E+00 -3.43008038791E+00
 -3.23039702709E+00 -3.04095735855E+00 -2.86093964563E+00 -2.69011427398E+00
 -2.52845345400E+00 -2.37588449050E+00 -2.23219665115E+00 -2.09705058868E+00
 -1.97002776747E+00 -1.85067851865E+00 -1.73855364679E+00 -1.63322041613E+00
 -1.53426865913E+00 -1.44131202856E+00 -1.35398734803E+00 -1.27195340168E+00
 -1.19488964083E+00 -1.12249493722E+00 -1.05448640696E+00 -9.90598305259E-01
 -9.30580987961E-01 -8.74199936097E-01 -8.21234839480E-01 -7.71478735845E-01
 -7.24737202136E-01 -6.80827594793E-01 -6.39578336073E-01 -6.00828243599E-01
 -5.64425900544E-01 -5.30229063961E-01 -4.98104108969E-01 -4.67925506606E-01
 -4.39575333330E-01 -4.12942810220E-01 -3.87923870116E-01 -3.64420750964E-01
 -3.42341613816E-01 -3.21600183963E-01 -3.02115413818E-01 -2.83811166218E-01
 -2.66615916918E-01 -2.50462475107E-01 -2.35287720860E-01 -2.21032358495E-01
 -2.07640684875E-01 -1.95060371743E-01 -1.83242261253E-01 -1.72140173880E-01
 -1.61710727978E-01 -1.51913170260E-01 -1.42709216555E-01 -1.34062902216E-01
 -1.25940441580E-01 -1.18310095957E-01 -1.11142049605E-01 -1.04408293227E-01
 -9.80825145231E-02
</PP_LOCAL>


<PP_NONLOCAL>
  <PP_BETA>
    1    0             Beta    L
   125
  2.94872692199E-02  3.13890027334E-02  3.34133826584E-02  3.55683165624E-02
  3.78622235872E-02  4.03040612285E-02  4.29033711454E-02  4.56703084099E-02
  4.86156760538E-02  5.17509785551E-02  5.50884668615E-02  5.86411666934E-02
  6.24229557193E-02  6.64485992474E-02  7.07338154712E-02  7.52953318573E-02
  8.01509516892E-02  8.53196278705E-02  9.08215273780E-02  9.66781162181E-02
  1.02912234513E-01  1.09548196926E-01  1.16611871519E-01  1.24130785770E-01
  1.32134234517E-01  1.40653383647E-01  1.49721393243E-01  1.59373545444E-01
  1.69647364814E-01  1.80582770628E-01  1.92222218231E-01  2.04610854476E-01
  2.17796684520E-01  2.31830743872E-01  2.46767277148E-01  2.62663921360E-01
  2.79581917817E-01  2.97586293668E-01  3.16746126951E-01  3.37134677704E-01
  3.58829669037E-01  3.81913511930E-01  4.06473476872E-01  4.32601979180E-01
  4.60396732867E-01  4.89960955831E-01  5.21403449503E-01  5.54838879486E-01
  5.90387602153E-01  6.28175822727E-01  6.68335318883E-01  7.11003153429E-01
  7.56321154828E-01  8.04435127519E-01  8.55493635922E-01  9.09646265958E-01
  9.67041417509E-01  1.02782296075E+00  1.09212602608E+00  1.16007124004E+00
  1.23175700752E+00  1.30724956802E+00  1.38656994255E+00  1.46967700134E+00
  1.55644585349E+00  1.64664044477E+00  1.73987922480E+00  1.83559274399E+00
  1.93297232354E+00  2.03090950128E+00  2.12792648018E+00  2.22210051258E+00
  2.31098582860E+00  2.39154374175E+00  2.46009361854E+00  2.51230528194E+00
  2.54326148813E+00  2.54762592358E+00  2.51995233400E+00  2.45516912571E+00
  2.34925379715E+00  2.20007183211E+00  2.00829707090E+00  1.77825063504E+00
  1.51841974256E+00  1.24137742025E+00  9.62863427376E-01  6.99948315501E-01
  4.68481114690E-01  2.80350468518E-01  1.41325603535E-01  5.02222540422E-02
 -2.23937858015E-04 -2.10059641315E-02 -2.38314848021E-02 -1.85042127083E-02
 -1.15044430065E-02 -5.96141534663E-03 -2.59806320481E-03 -9.48543856770E-04
 -2.86873543710E-04 -7.06995754750E-05 -1.39061466800E-05 -2.12928129267E-06
 -2.46511793569E-07 -2.08651118851E-08 -1.24243051226E-09 -4.98149584334E-11
 -1.27960398012E-12 -1.99072342055E-14 -2.11175277265E-16  0.00000000000E+00
  0.00000000000E+00  0.00000000000E+00  0.00000000000E+00  0.00000000000E+00
  0.00000000000E+00  0.00000000000E+00  0.00000000000E+00  0.00000000000E+00
  0.00000000000E+00  0.00000000000E+00  0.00000000000E+00  0.00000000000E+00
  0.00000000000E+00
  </PP_BETA>
  <PP_DIJ>
    1                  Number of nonzero Dij
    1    1  2.25248495584E+00
  </PP_DIJ>
</PP_NONLOCAL>


<PP_PSWFC>
2S    0  2.00          Wavefunction
  1.07773080000E-03  1.14724540000E-03  1.22124480000E-03  1.30001850000E-03
  1.38387480000E-03  1.47314180000E-03  1.56816910000E-03  1.66932890000E-03
  1.77701730000E-03  1.89165630000E-03  2.01369550000E-03  2.14361320000E-03
  2.28191930000E-03  2.42915670000E-03  2.58590380000E-03  2.75277670000E-03
  2.93043180000E-03  3.11956870000E-03  3.32093280000E-03  3.53531870000E-03
  3.76357330000E-03  4.00659990000E-03  4.26536160000E-03  4.54088580000E-03
  4.83426890000E-03  5.14668100000E-03  5.47937150000E-03  5.83367510000E-03
  6.21101780000E-03  6.61292440000E-03  7.04102600000E-03  7.49706850000E-03
  7.98292210000E-03  8.50059170000E-03  9.05222840000E-03  9.64014220000E-03
  1.02668170000E-02  1.09349260000E-02  1.16473520000E-02  1.24072050000E-02
  1.32178480000E-02  1.40829240000E-02  1.50063850000E-02  1.59925300000E-02
  1.70460440000E-02  1.81720460000E-02  1.93761410000E-02  2.06644900000E-02
  2.20438760000E-02  2.35217980000E-02  2.51065680000E-02  2.68074310000E-02
  2.86347050000E-02  3.05999460000E-02  3.27161400000E-02  3.49979280000E-02
  3.74618780000E-02  4.01267930000E-02  4.30140830000E-02  4.61481960000E-02
  4.95571180000E-02  5.32729620000E-02  5.73326470000E-02  6.17786770000E-02
  6.66600330000E-02  7.20331800000E-02  7.79631870000E-02  8.45249470000E-02
  9.18044720000E-02  9.99002180000E-02  1.08924340000E-01  1.19003780000E-01
  1.30280930000E-01  1.42913690000E-01  1.57074480000E-01  1.72947700000E-01
  1.90725050000E-01  2.10598050000E-01  2.32746840000E-01  2.57324630000E-01
  2.84437360000E-01  3.14118480000E-01  3.46299890000E-01  3.80781120000E-01
  4.17200400000E-01  4.55012940000E-01  4.93482560000E-01  5.31693020000E-01
  5.68583350000E-01  6.03007350000E-01  6.33811790000E-01  6.59921670000E-01
  6.80417780000E-01  6.94592920000E-01  7.01979180000E-01  7.02347720000E-01
  6.95689980000E-01  6.82191940000E-01  6.62210260000E-01  6.36253410000E-01
  6.04965240000E-01  5.69107060000E-01  5.29535250000E-01  4.87174280000E-01
  4.42986310000E-01  3.97939300000E-01  3.52975030000E-01  3.08978240000E-01
  2.66748010000E-01  2.26972690000E-01  1.90209780000E-01  1.56871870000E-01
  1.27220070000E-01  1.01365240000E-01  7.92773170000E-02  6.08019160000E-02
  4.56828260000E-02  3.35884630000E-02  2.41399090000E-02  1.69381530000E-02
  1.15884250000E-02  7.71998520000E-03  5.00042040000E-03  3.14422330000E-03
  1.91604600000E-03  1.12953210000E-03  6.42904350000E-04  3.52564670000E-04
  1.85861170000E-04  9.39503340000E-05  4.54013150000E-05  2.09299310000E-05
  9.17784850000E-06  3.81566530000E-06  1.49878880000E-06  5.54152040000E-07
  1.92086370000E-07  6.21562420000E-08  1.86947730000E-08  5.22353210000E-09
  1.44393630000E-09  3.66658590000E-10  8.50602530000E-11  1.79229690000E-11
  3.40891310000E-12  5.81400090000E-13  8.82943390000E-14  1.18505290000E-14
  1.39453220000E-15  1.42666170000E-16  1.25745710000E-17  9.45736820000E-19
  6.00770140000E-20
2P    1  1.00          Wavefunction
  3.37149500000E-05  3.82038890000E-05  4.32904780000E-05  4.90542820000E-05
  5.55854560000E-05  6.29861520000E-05  7.13721190000E-05  8.08745110000E-05
  9.16419350000E-05  1.03842770000E-04  1.17667800000E-04  1.33333200000E-04
  1.51083880000E-04  1.71197350000E-04  1.93988010000E-04  2.19812080000E-04
  2.49073120000E-04  2.82228350000E-04  3.19795740000E-04  3.62362080000E-04
  4.10592100000E-04  4.65238780000E-04  5.27155040000E-04  5.97306960000E-04
  6.76788720000E-04  7.66839520000E-04  8.68862680000E-04  9.84447260000E-04
  1.11539250000E-03  1.26373530000E-03  1.43178140000E-03  1.62214080000E-03
  1.83776670000E-03  2.08200090000E-03  2.35862360000E-03  2.67191020000E-03
  3.02669490000E-03  3.42844210000E-03  3.88332650000E-03  4.39832290000E-03
  4.98130640000E-03  5.64116470000E-03  6.38792220000E-03  7.23287860000E-03
  8.18876220000E-03  9.26989910000E-03  1.04923980000E-02  1.18743550000E-02
  1.34360720000E-02  1.52002960000E-02  1.71924740000E-02  1.94410220000E-02
  2.19776080000E-02  2.48374380000E-02  2.80595500000E-02  3.16870950000E-02
  3.57675980000E-02  4.03531840000E-02  4.55007480000E-02  5.12720380000E-02
  5.77336220000E-02  6.49566980000E-02  7.30167010000E-02  8.19926360000E-02
  9.19660980000E-02  1.03019880000E-01  1.15236120000E-01  1.28693870000E-01
  1.43466120000E-01  1.59616070000E-01  1.77192810000E-01  1.96226360000E-01
  2.16722170000E-01  2.38655350000E-01  2.61964930000E-01  2.86548560000E-01
  3.12258350000E-01  3.38898400000E-01  3.66224760000E-01  3.93948590000E-01
  4.21742710000E-01  4.49251830000E-01  4.76105760000E-01  5.01934550000E-01
  5.26383650000E-01  5.49126910000E-01  5.69875300000E-01  5.88379740000E-01
  6.04427880000E-01  6.17835760000E-01  6.28437030000E-01  6.36072920000E-01
  6.40586390000E-01  6.41823080000E-01  6.39639820000E-01  6.33919650000E-01
  6.24589800000E-01  6.11638690000E-01  5.95128010000E-01  5.75197960000E-01
  5.52065900000E-01  5.26020040000E-01  4.97410590000E-01  4.66639770000E-01
  4.34151810000E-01  4.00422650000E-01  3.65949320000E-01  3.31238440000E-01
  2.96793720000E-01  2.63102480000E-01  2.30621560000E-01  1.99763230000E-01
  1.70882000000E-01  1.44263230000E-01  1.20114770000E-01  9.85622080000E-02
  7.96485160000E-02  6.33380690000E-02  4.95248280000E-02  3.80439180000E-02
  2.86855710000E-02  2.12102140000E-02  1.53634550000E-02  1.08898480000E-02
  7.54457060000E-03  5.10243130000E-03  3.36398900000E-03  2.15883400000E-03
  1.34635060000E-03  8.14438170000E-04  4.76816190000E-04  2.69843360000E-04
  1.47314440000E-04  7.73970380000E-05  3.90350860000E-05  1.88483910000E-05
  8.68861720000E-06  3.81261180000E-06  1.58879780000E-06  6.30482920000E-07
  2.48535740000E-07  9.21304420000E-08  3.19874220000E-08  1.03578340000E-08
  3.11390820000E-09  8.64962460000E-10  2.20859730000E-10  5.15577530000E-11
  1.09397580000E-11  2.09688150000E-12  3.60691650000E-13  5.52909760000E-14
  7.49709080000E-15
</PP_PSWFC>


<PP_RHOATOM>
  2.32414405239E-06  2.63380355278E-06  2.98475178854E-06  3.38250252327E-06
  3.83330866707E-06  4.34426078116E-06  4.92340263176E-06  5.57985863928E-06
  6.32397921325E-06  7.16751043554E-06  8.12378484460E-06  9.20793284465E-06
  1.04371377222E-05  1.18309130790E-05  1.34114282737E-05  1.52038764706E-05
  1.72368984880E-05  1.95430705896E-05  2.21594586396E-05  2.51282628982E-05
  2.84975538415E-05  3.23221326398E-05  3.66645115937E-05  4.15960633017E-05
  4.71983545665E-05  5.35646934810E-05  6.08019464267E-05  6.90326667524E-05
  7.83975846529E-05  8.90585651487E-05  1.01202092243E-04  1.15043412962E-04
  1.30831476953E-04  1.48854846248E-04  1.69448783298E-04  1.93003787389E-04
  2.19975944641E-04  2.50899428484E-04  2.86401841929E-04  3.27222716157E-04
  3.74236424953E-04  4.28480235952E-04  4.91188731570E-04  5.63836564444E-04
  6.48191058468E-04  7.46377540976E-04  8.60960095894E-04  9.95042600586E-04
  1.15239296900E-03  1.33759896079E-03  1.55626067572E-03  1.81523005004E-03
  2.12290791428E-03  2.48961171681E-03  2.92802997920E-03  3.45378191813E-03
  4.08610567326E-03  4.84869849187E-03  5.77074074122E-03  6.88813386878E-03
  8.24498699817E-03  9.89538957557E-03  1.19055034490E-02  1.43560022220E-02
  1.73448831805E-02  2.09906537170E-02  2.54358804070E-02  3.08510455063E-02
  3.74386497463E-02  4.54373969151E-02  5.51263156046E-02  6.68285836674E-02
  8.09147404128E-02  9.78050216625E-02  1.17970409084E-01  1.41931891109E-01
  1.70257366540E-01  2.03555202850E-01  2.42462757897E-01  2.87627421972E-01
  3.39676136966E-01  3.99168045713E-01  4.66523922333E-01  5.41926815181E-01
  6.25192094508E-01  7.15613914421E-01  8.11807931598E-01  9.11585653476E-01
  1.01190711392E+00  1.10895675464E+00  1.19836787096E+00  1.27558198063E+00
  1.33628763373E+00  1.37685551505E+00  1.39468863764E+00  1.38843876223E+00
  1.35808151481E+00  1.30487357311E+00  1.23122220519E+00  1.14048949666E+00
  1.03674264116E+00  9.24462773965E-01  8.08232457029E-01  6.92430233133E-01
  5.80961535821E-01  4.77049671602E-01  3.83101648415E-01  3.00654009721E-01
  2.30395513909E-01  1.72256118994E-01  1.25545824752E-01  8.91229152546E-02
  6.15705503456E-02  4.13617032905E-02  2.69973439536E-02  1.71082548244E-02
  1.05177272837E-02  6.26808067805E-03  3.61817900149E-03  2.02114175089E-03
  1.09144517156E-03  5.69069520902E-04  2.86044157890E-04  1.38361069784E-04
  6.42630100866E-05  2.85864907011E-05  1.21430739986E-05  4.90916793262E-06
  1.88174868715E-06  6.80962863270E-07  2.31476237854E-07  7.36915629594E-08
  2.18700100387E-08  6.01942009454E-09  1.52823067476E-09  3.55876012256E-10
  7.55658631952E-11  1.45437355343E-11  2.52497743836E-12  3.97563282987E-13
  6.17741839614E-14  8.48828722016E-15  1.02320963670E-15  1.07285367637E-16
  9.69644751940E-18  7.48160733261E-19  4.87790359275E-20  2.65820217528E-21
  1.19678308988E-22  4.39691206575E-24  1.30098466696E-25  3.05709202882E-27
  5.62063704707E-29
</PP_RHOATOM>
