<PP_INFO>
Generated using "atomic" code by A. Dal Corso  (espresso distribution)     
Author: Paolo Giannozzi   Generation date:  7Feb2008
Info:   C PBE with a 1s core-hole: 1s1 2s2 2p2 RRKJ3 US
    1        The Pseudo was generated with a Scalar-Relativistic Calculation
    2 1.3000000E+00    L component and cutoff radius for Local Potential
nl pn  l   occ               Rcut            Rcut US             E pseu
2S  1  0  2.00      1.40000000000      1.60000000000     -2.19814028365
2S  1  0  0.00      1.40000000000      1.60000000000      0.05000000000
2P  2  1  2.00      1.30000000000      1.60000000000     -1.56800948749
2P  2  1  0.00      1.30000000000      1.60000000000      0.05000000000
3D  3  2 -2.00      1.30000000000      1.30000000000      0.15000000000
</PP_INFO>


<PP_HEADER>
   0                   Version Number
   C                   Element
   US                  Ultrasoft pseudopotential
    F                  Nonlinear Core Correction
 SLA  PW   PBX  PBC    PBE  Exchange-Correlation functional
    5.00000000000      Z valence
  -17.67404548958      Total energy
    25.0000   150.0000 Suggested cutoff for wfc and rho
    2                  Max angular momentum component
 1073                  Number of points in mesh
    2    4             Number of Wavefunctions, Number of Projectors
 Wavefunctions         nl  l   occ
                       2S  0  2.00
                       2P  1  2.00
</PP_HEADER>


<PP_MESH>
  <PP_R>
  1.51980327592E-04  1.53892004778E-04  1.55827727903E-04  1.57787799427E-04
  1.59772525616E-04  1.61782216587E-04  1.63817186358E-04  1.65877752898E-04
  1.67964238175E-04  1.70076968205E-04  1.72216273108E-04  1.74382487154E-04
  1.76575948818E-04  1.78797000833E-04  1.81045990244E-04  1.83323268459E-04
  1.85629191307E-04  1.87964119095E-04  1.90328416658E-04  1.92722453424E-04
  1.95146603465E-04  1.97601245560E-04  2.00086763252E-04  2.02603544907E-04
  2.05151983779E-04  2.07732478065E-04  2.10345430974E-04  2.12991250784E-04
  2.15670350911E-04  2.18383149969E-04  2.21130071838E-04  2.23911545731E-04
  2.26728006258E-04  2.29579893498E-04  2.32467653063E-04  2.35391736171E-04
  2.38352599718E-04  2.41350706343E-04  2.44386524507E-04  2.47460528563E-04
  2.50573198830E-04  2.53725021668E-04  2.56916489558E-04  2.60148101172E-04
  2.63420361456E-04  2.66733781707E-04  2.70088879655E-04  2.73486179539E-04
  2.76926212196E-04  2.80409515136E-04  2.83936632634E-04  2.87508115808E-04
  2.91124522710E-04  2.94786418411E-04  2.98494375090E-04  3.02248972122E-04
  3.06050796171E-04  3.09900441280E-04  3.13798508963E-04  3.17745608302E-04
  3.21742356038E-04  3.25789376672E-04  3.29887302559E-04  3.34036774008E-04
  3.38238439383E-04  3.42492955202E-04  3.46800986242E-04  3.51163205641E-04
  3.55580295006E-04  3.60052944516E-04  3.64581853030E-04  3.69167728201E-04
  3.73811286581E-04  3.78513253735E-04  3.83274364354E-04  3.88095362373E-04
  3.92977001082E-04  3.97920043246E-04  4.02925261227E-04  4.07993437100E-04
  4.13125362778E-04  4.18321840134E-04  4.23583681128E-04  4.28911707935E-04
  4.34306753068E-04  4.39769659515E-04  4.45301280867E-04  4.50902481449E-04
  4.56574136461E-04  4.62317132112E-04  4.68132365754E-04  4.74020746031E-04
  4.79983193015E-04  4.86020638348E-04  4.92134025396E-04  4.98324309386E-04
  5.04592457563E-04  5.10939449338E-04  5.17366276442E-04  5.23873943079E-04
  5.30463466085E-04  5.37135875087E-04  5.43892212663E-04  5.50733534503E-04
  5.57660909579E-04  5.64675420306E-04  5.71778162716E-04  5.78970246628E-04
  5.86252795819E-04  5.93626948201E-04  6.01093856003E-04  6.08654685942E-04
  6.16310619414E-04  6.24062852674E-04  6.31912597025E-04  6.39861079004E-04
  6.47909540579E-04  6.56059239338E-04  6.64311448688E-04  6.72667458053E-04
  6.81128573077E-04  6.89696115827E-04  6.98371424997E-04  7.07155856124E-04
  7.16050781792E-04  7.25057591851E-04  7.34177693635E-04  7.43412512176E-04
  7.52763490435E-04  7.62232089521E-04  7.71819788922E-04  7.81528086735E-04
  7.91358499902E-04  8.01312564444E-04  8.11391835705E-04  8.21597888591E-04
  8.31932317818E-04  8.42396738163E-04  8.52992784712E-04  8.63722113119E-04
  8.74586399864E-04  8.85587342512E-04  8.96726659985E-04  9.08006092823E-04
  9.19427403460E-04  9.30992376500E-04  9.42702818992E-04  9.54560560718E-04
  9.66567454474E-04  9.78725376361E-04  9.91036226079E-04  1.00350192722E-03
  1.01612442759E-03  1.02890569946E-03  1.04184773994E-03  1.05495257125E-03
  1.06822224104E-03  1.08165882274E-03  1.09526441582E-03  1.10904114620E-03
  1.12299116651E-03  1.13711665648E-03  1.15141982324E-03  1.16590290169E-03
  1.18056815484E-03  1.19541787417E-03  1.21045437997E-03  1.22568002173E-03
  1.24109717849E-03  1.25670825920E-03  1.27251570314E-03  1.28852198025E-03
  1.30472959154E-03  1.32114106948E-03  1.33775897840E-03  1.35458591488E-03
  1.37162450817E-03  1.38887742058E-03  1.40634734791E-03  1.42403701987E-03
  1.44194920052E-03  1.46008668866E-03  1.47845231832E-03  1.49704895916E-03
  1.51587951695E-03  1.53494693399E-03  1.55425418962E-03  1.57380430063E-03
  1.59360032176E-03  1.61364534618E-03  1.63394250597E-03  1.65449497260E-03
  1.67530595744E-03  1.69637871224E-03  1.71771652967E-03  1.73932274380E-03
  1.76120073064E-03  1.78335390869E-03  1.80578573941E-03  1.82849972782E-03
  1.85149942304E-03  1.87478841881E-03  1.89837035409E-03  1.92224891359E-03
  1.94642782840E-03  1.97091087652E-03  1.99570188347E-03  2.02080472290E-03
  2.04622331718E-03  2.07196163801E-03  2.09802370707E-03  2.12441359660E-03
  2.15113543008E-03  2.17819338284E-03  2.20559168276E-03  2.23333461086E-03
  2.26142650203E-03  2.28987174570E-03  2.31867478649E-03  2.34784012493E-03
  2.37737231817E-03  2.40727598066E-03  2.43755578493E-03  2.46821646225E-03
  2.49926280341E-03  2.53069965947E-03  2.56253194250E-03  2.59476462636E-03
  2.62740274748E-03  2.66045140561E-03  2.69391576469E-03  2.72780105360E-03
  2.76211256696E-03  2.79685566603E-03  2.83203577949E-03  2.86765840431E-03
  2.90372910658E-03  2.94025352244E-03  2.97723735889E-03  3.01468639473E-03
  3.05260648146E-03  3.09100354416E-03  3.12988358245E-03  3.16925267142E-03
  3.20911696256E-03  3.24948268477E-03  3.29035614525E-03  3.33174373057E-03
  3.37365190763E-03  3.41608722467E-03  3.45905631228E-03  3.50256588448E-03
  3.54662273973E-03  3.59123376199E-03  3.63640592184E-03  3.68214627751E-03
  3.72846197603E-03  3.77536025431E-03  3.82284844032E-03  3.87093395418E-03
  3.91962430933E-03  3.96892711377E-03  4.01885007114E-03  4.06940098201E-03
  4.12058774506E-03  4.17241835833E-03  4.22490092045E-03  4.27804363195E-03
  4.33185479646E-03  4.38634282210E-03  4.44151622273E-03  4.49738361930E-03
  4.55395374122E-03  4.61123542767E-03  4.66923762904E-03  4.72796940829E-03
  4.78743994237E-03  4.84765852369E-03  4.90863456152E-03  4.97037758348E-03
  5.03289723705E-03  5.09620329106E-03  5.16030563720E-03  5.22521429159E-03
  5.29093939634E-03  5.35749122115E-03  5.42488016485E-03  5.49311675712E-03
  5.56221166005E-03  5.63217566988E-03  5.70301971861E-03  5.77475487578E-03
  5.84739235014E-03  5.92094349146E-03  5.99541979224E-03  6.07083288956E-03
  6.14719456687E-03  6.22451675584E-03  6.30281153822E-03  6.38209114772E-03
  6.46236797195E-03  6.54365455433E-03  6.62596359604E-03  6.70930795804E-03
  6.79370066306E-03  6.87915489763E-03  6.96568401415E-03  7.05330153297E-03
  7.14202114451E-03  7.23185671138E-03  7.32282227057E-03  7.41493203564E-03
  7.50820039893E-03  7.60264193380E-03  7.69827139695E-03  7.79510373066E-03
  7.89315406519E-03  7.99243772110E-03  8.09297021167E-03  8.19476724530E-03
  8.29784472798E-03  8.40221876578E-03  8.50790566736E-03  8.61492194651E-03
  8.72328432474E-03  8.83300973389E-03  8.94411531879E-03  9.05661843990E-03
  9.17053667607E-03  9.28588782725E-03  9.40268991730E-03  9.52096119677E-03
  9.64072014581E-03  9.76198547698E-03  9.88477613824E-03  1.00091113159E-02
  1.01350104375E-02  1.02624931752E-02  1.03915794483E-02  1.05222894268E-02
  1.06546435345E-02  1.07886624518E-02  1.09243671197E-02  1.10617787421E-02
  1.12009187900E-02  1.13418090042E-02  1.14844713991E-02  1.16289282661E-02
  1.17752021767E-02  1.19233159867E-02  1.20732928390E-02  1.22251561680E-02
  1.23789297024E-02  1.25346374698E-02  1.26923037998E-02  1.28519533281E-02
  1.30136110002E-02  1.31773020755E-02  1.33430521311E-02  1.35108870658E-02
  1.36808331040E-02  1.38529168002E-02  1.40271650429E-02  1.42036050586E-02
  1.43822644166E-02  1.45631710326E-02  1.47463531737E-02  1.49318394625E-02
  1.51196588816E-02  1.53098407781E-02  1.55024148684E-02  1.56974112426E-02
  1.58948603693E-02  1.60947931002E-02  1.62972406752E-02  1.65022347273E-02
  1.67098072871E-02  1.69199907883E-02  1.71328180725E-02  1.73483223944E-02
  1.75665374270E-02  1.77874972667E-02  1.80112364391E-02  1.82377899039E-02
  1.84671930604E-02  1.86994817534E-02  1.89346922785E-02  1.91728613877E-02
  1.94140262956E-02  1.96582246846E-02  1.99054947111E-02  2.01558750117E-02
  2.04094047088E-02  2.06661234169E-02  2.09260712489E-02  2.11892888220E-02
  2.14558172646E-02  2.17256982224E-02  2.19989738646E-02  2.22756868913E-02
  2.25558805394E-02  2.28395985898E-02  2.31268853738E-02  2.34177857808E-02
  2.37123452644E-02  2.40106098502E-02  2.43126261427E-02  2.46184413325E-02
  2.49281032038E-02  2.52416601419E-02  2.55591611408E-02  2.58806558107E-02
  2.62061943856E-02  2.65358277317E-02  2.68696073550E-02  2.72075854090E-02
  2.75498147036E-02  2.78963487128E-02  2.82472415832E-02  2.86025481427E-02
  2.89623239084E-02  2.93266250962E-02  2.96955086288E-02  3.00690321451E-02
  3.04472540088E-02  3.08302333179E-02  3.12180299137E-02  3.16107043901E-02
  3.20083181035E-02  3.24109331816E-02  3.28186125340E-02  3.32314198614E-02
  3.36494196658E-02  3.40726772604E-02  3.45012587802E-02  3.49352311918E-02
  3.53746623045E-02  3.58196207800E-02  3.62701761442E-02  3.67263987972E-02
  3.71883600247E-02  3.76561320092E-02  3.81297878409E-02  3.86094015295E-02
  3.90950480156E-02  3.95868031826E-02  4.00847438681E-02  4.05889478763E-02
  4.10994939903E-02  4.16164619838E-02  4.21399326341E-02  4.26699877347E-02
  4.32067101076E-02  4.37501836170E-02  4.43004931815E-02  4.48577247882E-02
  4.54219655057E-02  4.59933034977E-02  4.65718280369E-02  4.71576295190E-02
  4.77507994767E-02  4.83514305939E-02  4.89596167206E-02  4.95754528870E-02
  5.01990353187E-02  5.08304614518E-02  5.14698299480E-02  5.21172407098E-02
  5.27727948965E-02  5.34365949398E-02  5.41087445597E-02  5.47893487811E-02
  5.54785139497E-02  5.61763477489E-02  5.68829592168E-02  5.75984587628E-02
  5.83229581852E-02  5.90565706884E-02  5.97994109010E-02  6.05515948932E-02
  6.13132401952E-02  6.20844658158E-02  6.28653922605E-02  6.36561415507E-02
  6.44568372424E-02  6.52676044461E-02  6.60885698458E-02  6.69198617190E-02
  6.77616099568E-02  6.86139460839E-02  6.94770032798E-02  7.03509163987E-02
  7.12358219915E-02  7.21318583263E-02  7.30391654108E-02  7.39578850135E-02
  7.48881606862E-02  7.58301377864E-02  7.67839634998E-02  7.77497868638E-02
  7.87277587902E-02  7.97180320890E-02  8.07207614926E-02  8.17361036793E-02
  8.27642172986E-02  8.38052629952E-02  8.48594034346E-02  8.59268033285E-02
  8.70076294602E-02  8.81020507110E-02  8.92102380865E-02  9.03323647432E-02
  9.14686060157E-02  9.26191394439E-02  9.37841448012E-02  9.49638041218E-02
  9.61583017301E-02  9.73678242686E-02  9.85925607278E-02  9.98327024752E-02
  1.01088443285E-01  1.02359979371E-01  1.03647509411E-01  1.04951234585E-01
  1.06271358604E-01  1.07608087738E-01  1.08961630855E-01  1.10332199448E-01
  1.11720007673E-01  1.13125272375E-01  1.14548213132E-01  1.15989052280E-01
  1.17448014953E-01  1.18925329118E-01  1.20421225607E-01  1.21935938158E-01
  1.23469703447E-01  1.25022761128E-01  1.26595353871E-01  1.28187727395E-01
  1.29800130512E-01  1.31432815164E-01  1.33086036460E-01  1.34760052720E-01
  1.36455125513E-01  1.38171519697E-01  1.39909503462E-01  1.41669348371E-01
  1.43451329404E-01  1.45255725000E-01  1.47082817097E-01  1.48932891185E-01
  1.50806236339E-01  1.52703145275E-01  1.54623914388E-01  1.56568843802E-01
  1.58538237417E-01  1.60532402953E-01  1.62551652005E-01  1.64596300082E-01
  1.66666666667E-01  1.68763075257E-01  1.70885853421E-01  1.73035332847E-01
  1.75211849396E-01  1.77415743153E-01  1.79647358481E-01  1.81907044074E-01
  1.84195153013E-01  1.86512042819E-01  1.88858075511E-01  1.91233617662E-01
  1.93639040455E-01  1.96074719741E-01  1.98541036102E-01  2.01038374903E-01
  2.03567126360E-01  2.06127685594E-01  2.08720452699E-01  2.11345832798E-01
  2.14004236115E-01  2.16696078028E-01  2.19421779145E-01  2.22181765361E-01
  2.24976467929E-01  2.27806323529E-01  2.30671774330E-01  2.33573268065E-01
  2.36511258099E-01  2.39486203498E-01  2.42498569103E-01  2.45548825603E-01
  2.48637449607E-01  2.51764923718E-01  2.54931736611E-01  2.58138383106E-01
  2.61385364248E-01  2.64673187386E-01  2.68002366248E-01  2.71373421024E-01
  2.74786878450E-01  2.78243271885E-01  2.81743141397E-01  2.85287033847E-01
  2.88875502978E-01  2.92509109493E-01  2.96188421152E-01  2.99914012855E-01
  3.03686466732E-01  3.07506372237E-01  3.11374326239E-01  3.15290933112E-01
  3.19256804836E-01  3.23272561084E-01  3.27338829328E-01  3.31456244930E-01
  3.35625451245E-01  3.39847099719E-01  3.44121849994E-01  3.48450370009E-01
  3.52833336102E-01  3.57271433122E-01  3.61765354531E-01  3.66315802512E-01
  3.70923488082E-01  3.75589131202E-01  3.80313460888E-01  3.85097215326E-01
  3.89941141988E-01  3.94845997746E-01  3.99812548995E-01  4.04841571767E-01
  4.09933851859E-01  4.15090184950E-01  4.20311376726E-01  4.25598243010E-01
  4.30951609886E-01  4.36372313827E-01  4.41861201830E-01  4.47419131545E-01
  4.53046971410E-01  4.58745600785E-01  4.64515910094E-01  4.70358800959E-01
  4.76275186344E-01  4.82265990695E-01  4.88332150089E-01  4.94474612375E-01
  5.00694337324E-01  5.06992296783E-01  5.13369474820E-01  5.19826867881E-01
  5.26365484948E-01  5.32986347693E-01  5.39690490640E-01  5.46478961323E-01
  5.53352820456E-01  5.60313142093E-01  5.67361013798E-01  5.74497536817E-01
  5.81723826244E-01  5.89041011202E-01  5.96450235017E-01  6.03952655394E-01
  6.11549444603E-01  6.19241789657E-01  6.27030892500E-01  6.34917970196E-01
  6.42904255116E-01  6.50990995134E-01  6.59179453820E-01  6.67470910637E-01
  6.75866661141E-01  6.84368017186E-01  6.92976307126E-01  7.01692876024E-01
  7.10519085861E-01  7.19456315752E-01  7.28505962155E-01  7.37669439097E-01
  7.46948178390E-01  7.56343629855E-01  7.65857261551E-01  7.75490560003E-01
  7.85245030432E-01  7.95122196995E-01  8.05123603018E-01  8.15250811243E-01
  8.25505404066E-01  8.35888983787E-01  8.46403172863E-01  8.57049614157E-01
  8.67829971197E-01  8.78745928435E-01  8.89799191512E-01  9.00991487524E-01
  9.12324565288E-01  9.23800195622E-01  9.35420171616E-01  9.47186308914E-01
  9.59100446001E-01  9.71164444484E-01  9.83380189387E-01  9.95749589445E-01
  1.00827457740E+00  1.02095711031E+00  1.03379916985E+00  1.04680276261E+00
  1.05996992043E+00  1.07330270071E+00  1.08680318672E+00  1.10047348794E+00
  1.11431574038E+00  1.12833210692E+00  1.14252477765E+00  1.15689597020E+00
  1.17144793010E+00  1.18618293112E+00  1.20110327564E+00  1.21621129498E+00
  1.23150934982E+00  1.24699983050E+00  1.26268515744E+00  1.27856778150E+00
  1.29465018438E+00  1.31093487899E+00  1.32742440984E+00  1.34412135345E+00
  1.36102831876E+00  1.37814794751E+00  1.39548291469E+00  1.41303592891E+00
  1.43080973286E+00  1.44880710375E+00  1.46703085370E+00  1.48548383020E+00
  1.50416891657E+00  1.52308903240E+00  1.54224713398E+00  1.56164621482E+00
  1.58128930606E+00  1.60117947697E+00  1.62131983543E+00  1.64171352841E+00
  1.66236374247E+00  1.68327370425E+00  1.70444668097E+00  1.72588598095E+00
  1.74759495412E+00  1.76957699256E+00  1.79183553101E+00  1.81437404741E+00
  1.83719606344E+00  1.86030514509E+00  1.88370490321E+00  1.90739899406E+00
  1.93139111987E+00  1.95568502948E+00  1.98028451885E+00  2.00519343171E+00
  2.03041566012E+00  2.05595514511E+00  2.08181587727E+00  2.10800189740E+00
  2.13451729711E+00  2.16136621949E+00  2.18855285975E+00  2.21608146584E+00
  2.24395633917E+00  2.27218183524E+00  2.30076236434E+00  2.32970239225E+00
  2.35900644090E+00  2.38867908910E+00  2.41872497327E+00  2.44914878813E+00
  2.47995528748E+00  2.51114928489E+00  2.54273565448E+00  2.57471933169E+00
  2.60710531403E+00  2.63989866189E+00  2.67310449928E+00  2.70672801468E+00
  2.74077446185E+00  2.77524916060E+00  2.81015749768E+00  2.84550492759E+00
  2.88129697343E+00  2.91753922778E+00  2.95423735358E+00  2.99139708497E+00
  3.02902422824E+00  3.06712466271E+00  3.10570434165E+00  3.14476929321E+00
  3.18432562137E+00  3.22437950689E+00  3.26493720827E+00  3.30600506272E+00
  3.34758948720E+00  3.38969697934E+00  3.43233411853E+00  3.47550756691E+00
  3.51922407042E+00  3.56349045985E+00  3.60831365192E+00  3.65370065033E+00
  3.69965854691E+00  3.74619452266E+00  3.79331584892E+00  3.84102988851E+00
  3.88934409682E+00  3.93826602307E+00  3.98780331140E+00  4.03796370210E+00
  4.08875503285E+00  4.14018523989E+00  4.19226235930E+00  4.24499452824E+00
  4.29838998620E+00  4.35245707634E+00  4.40720424676E+00  4.46264005181E+00
  4.51877315344E+00  4.57561232258E+00  4.63316644044E+00  4.69144450000E+00
  4.75045560729E+00  4.81020898295E+00  4.87071396354E+00  4.93198000310E+00
  4.99401667457E+00  5.05683367130E+00  5.12044080858E+00  5.18484802516E+00
  5.25006538479E+00  5.31610307782E+00  5.38297142277E+00  5.45068086795E+00
  5.51924199312E+00  5.58866551107E+00  5.65896226937E+00  5.73014325205E+00
  5.80221958127E+00  5.87520251910E+00  5.94910346928E+00  6.02393397897E+00
  6.09970574061E+00  6.17643059368E+00  6.25412052660E+00  6.33278767857E+00
  6.41244434151E+00  6.49310296191E+00  6.57477614287E+00  6.65747664597E+00
  6.74121739334E+00  6.82601146965E+00  6.91187212414E+00  6.99881277271E+00
  7.08684700001E+00  7.17598856158E+00  7.26625138595E+00  7.35764957689E+00
  7.45019741555E+00  7.54390936271E+00  7.63880006106E+00  7.73488433745E+00
  7.83217720526E+00  7.93069386670E+00  8.03044971518E+00  8.13146033778E+00
  8.23374151759E+00  8.33730923627E+00  8.44217967647E+00  8.54836922443E+00
  8.65589447247E+00  8.76477222163E+00  8.87501948429E+00  8.98665348679E+00
  9.09969167219E+00  9.21415170292E+00  9.33005146361E+00  9.44740906381E+00
  9.56624284091E+00  9.68657136291E+00  9.80841343139E+00  9.93178808443E+00
  1.00567145996E+01  1.01832124968E+01  1.03113015417E+01  1.04410017485E+01
  1.05723333830E+01  1.07053169662E+01  1.08399732768E+01  1.09763233554E+01
  1.11143885068E+01  1.12541903041E+01  1.13957505914E+01  1.15390914880E+01
  1.16842353911E+01  1.18312049798E+01  1.19800232183E+01  1.21307133598E+01
  1.22832989499E+01  1.24378038305E+01  1.25942521433E+01  1.27526683336E+01
  1.29130771542E+01  1.30755036694E+01  1.32399732587E+01  1.34065116207E+01
  1.35751447775E+01  1.37458990782E+01  1.39188012037E+01  1.40938781701E+01
  1.42711573337E+01  1.44506663947E+01  1.46324334016E+01  1.48164867561E+01
  1.50028552168E+01  1.51915679041E+01  1.53826543048E+01  1.55761442765E+01
  1.57720680525E+01  1.59704562462E+01  1.61713398562E+01  1.63747502709E+01
  1.65807192737E+01  1.67892790475E+01  1.70004621804E+01  1.72143016702E+01
  1.74308309295E+01  1.76500837917E+01  1.78720945153E+01  1.80968977901E+01
  1.83245287420E+01  1.85550229388E+01  1.87884163957E+01  1.90247455808E+01
  1.92640474212E+01  1.95063593082E+01  1.97517191035E+01  2.00001651450E+01
  2.02517362531E+01  2.05064717362E+01  2.07644113972E+01  2.10255955397E+01
  2.12900649743E+01  2.15578610249E+01  2.18290255351E+01  2.21036008750E+01
  2.23816299475E+01  2.26631561952E+01  2.29482236071E+01  2.32368767257E+01
  2.35291606536E+01  2.38251210607E+01  2.41248041914E+01  2.44282568718E+01
  2.47355265171E+01  2.50466611387E+01  2.53617093521E+01  2.56807203842E+01
  2.60037440811E+01  2.63308309159E+01  2.66620319966E+01  2.69973990740E+01
  2.73369845500E+01  2.76808414854E+01  2.80290236086E+01  2.83815853238E+01
  2.87385817195E+01  2.91000685770E+01  2.94661023794E+01  2.98367403203E+01
  3.02120403125E+01  3.05920609975E+01  3.09768617543E+01  3.13665027088E+01
  3.17610447431E+01  3.21605495053E+01  3.25650794188E+01  3.29746976921E+01
  3.33894683291E+01  3.38094561385E+01  3.42347267441E+01  3.46653465955E+01
  3.51013829778E+01  3.55429040226E+01  3.59899787184E+01  3.64426769217E+01
  3.69010693674E+01  3.73652276802E+01  3.78352243859E+01  3.83111329223E+01
  3.87930276513E+01  3.92809838697E+01  3.97750778218E+01  4.02753867107E+01
  4.07819887107E+01  4.12949629794E+01  4.18143896701E+01  4.23403499443E+01
  4.28729259843E+01  4.34122010062E+01  4.39582592728E+01  4.45111861069E+01
  4.50710679044E+01  4.56379921479E+01  4.62120474205E+01  4.67933234196E+01
  4.73819109707E+01  4.79779020417E+01  4.85813897576E+01  4.91924684144E+01
  4.98112334945E+01  5.04377816812E+01  5.10722108739E+01  5.17146202034E+01
  5.23651100476E+01  5.30237820468E+01  5.36907391197E+01  5.43660854799E+01
  5.50499266516E+01  5.57423694863E+01  5.64435221797E+01  5.71534942882E+01
  5.78723967465E+01  5.86003418845E+01  5.93374434451E+01  6.00838166020E+01
  6.08395779776E+01  6.16048456609E+01  6.23797392267E+01  6.31643797537E+01
  6.39588898435E+01  6.47633936400E+01  6.55780168485E+01  6.64028867556E+01
  6.72381322488E+01  6.80838838370E+01  6.89402736705E+01  6.98074355621E+01
  7.06855050075E+01  7.15746192068E+01  7.24749170861E+01  7.33865393185E+01
  7.43096283471E+01  7.52443284063E+01  7.61907855448E+01  7.71491476486E+01
  7.81195644637E+01  7.91021876197E+01  8.00971706535E+01  8.11046690331E+01
  8.21248401822E+01  8.31578435047E+01  8.42038404095E+01  8.52629943356E+01
  8.63354707781E+01  8.74214373135E+01  8.85210636263E+01  8.96345215355E+01
  9.07619850210E+01  9.19036302513E+01  9.30596356108E+01  9.42301817278E+01
  9.54154515023E+01  9.66156301352E+01  9.78309051570E+01  9.90614664566E+01
  1.00307506312E+02
  </PP_R>
  <PP_RAB>
  1.89975409491E-06  1.92365005973E-06  1.94784659878E-06  1.97234749284E-06
  1.99715657020E-06  2.02227770733E-06  2.04771482948E-06  2.07347191123E-06
  2.09955297718E-06  2.12596210256E-06  2.15270341385E-06  2.17978108942E-06
  2.20719936022E-06  2.23496251042E-06  2.26307487805E-06  2.29154085574E-06
  2.32036489134E-06  2.34955148869E-06  2.37910520823E-06  2.40903066780E-06
  2.43933254331E-06  2.47001556950E-06  2.50108454065E-06  2.53254431134E-06
  2.56439979724E-06  2.59665597582E-06  2.62931788718E-06  2.66239063481E-06
  2.69587938639E-06  2.72978937461E-06  2.76412589797E-06  2.79889432163E-06
  2.83410007822E-06  2.86974866872E-06  2.90584566328E-06  2.94239670214E-06
  2.97940749647E-06  3.01688382929E-06  3.05483155634E-06  3.09325660704E-06
  3.13216498537E-06  3.17156277086E-06  3.21145611948E-06  3.25185126465E-06
  3.29275451820E-06  3.33417227134E-06  3.37611099569E-06  3.41857724424E-06
  3.46157765245E-06  3.50511893920E-06  3.54920790792E-06  3.59385144760E-06
  3.63905653388E-06  3.68483023014E-06  3.73117968863E-06  3.77811215153E-06
  3.82563495214E-06  3.87375551600E-06  3.92248136204E-06  3.97182010377E-06
  4.02177945047E-06  4.07236720840E-06  4.12359128199E-06  4.17545967510E-06
  4.22798049228E-06  4.28116194002E-06  4.33501232802E-06  4.38954007052E-06
  4.44475368758E-06  4.50066180645E-06  4.55727316288E-06  4.61459660252E-06
  4.67264108226E-06  4.73141567168E-06  4.79092955443E-06  4.85119202966E-06
  4.91221251352E-06  4.97400054058E-06  5.03656576534E-06  5.09991796375E-06
  5.16406703472E-06  5.22902300167E-06  5.29479601410E-06  5.36139634918E-06
  5.42883441335E-06  5.49712074394E-06  5.56626601083E-06  5.63628101811E-06
  5.70717670577E-06  5.77896415139E-06  5.85165457193E-06  5.92525932539E-06
  5.99978991268E-06  6.07525797935E-06  6.15167531744E-06  6.22905386732E-06
  6.30740571953E-06  6.38674311672E-06  6.46707845552E-06  6.54842428848E-06
  6.63079332606E-06  6.71419843859E-06  6.79865265828E-06  6.88416918129E-06
  6.97076136973E-06  7.05844275382E-06  7.14722703395E-06  7.23712808285E-06
  7.32815994773E-06  7.42033685252E-06  7.51367320003E-06  7.60818357427E-06
  7.70388274267E-06  7.80078565843E-06  7.89890746281E-06  7.99826348755E-06
  8.09886925724E-06  8.20074049173E-06  8.30389310860E-06  8.40834322567E-06
  8.51410716347E-06  8.62120144783E-06  8.72964281247E-06  8.83944820155E-06
  8.95063477240E-06  9.06321989814E-06  9.17722117043E-06  9.29265640220E-06
  9.40954363044E-06  9.52790111902E-06  9.64774736153E-06  9.76910108419E-06
  9.89198124877E-06  1.00164070556E-05  1.01423979463E-05  1.02699736074E-05
  1.03991539727E-05  1.05299592270E-05  1.06624098089E-05  1.07965264140E-05
  1.09323299983E-05  1.10698417814E-05  1.12090832498E-05  1.13500761603E-05
  1.14928425433E-05  1.16374047062E-05  1.17837852374E-05  1.19320070090E-05
  1.20820931809E-05  1.22340672045E-05  1.23879528260E-05  1.25437740903E-05
  1.27015553448E-05  1.28613212432E-05  1.30230967492E-05  1.31869071406E-05
  1.33527780130E-05  1.35207352842E-05  1.36908051978E-05  1.38630143275E-05
  1.40373895814E-05  1.42139582060E-05  1.43927477905E-05  1.45737862712E-05
  1.47571019355E-05  1.49427234271E-05  1.51306797496E-05  1.53210002716E-05
  1.55137147311E-05  1.57088532401E-05  1.59064462893E-05  1.61065247531E-05
  1.63091198942E-05  1.65142633685E-05  1.67219872300E-05  1.69323239360E-05
  1.71453063521E-05  1.73609677572E-05  1.75793418489E-05  1.78004627484E-05
  1.80243650065E-05  1.82510836083E-05  1.84806539790E-05  1.87131119895E-05
  1.89484939619E-05  1.91868366749E-05  1.94281773703E-05  1.96725537578E-05
  1.99200040220E-05  2.01705668272E-05  2.04242813246E-05  2.06811871575E-05
  2.09413244680E-05  2.12047339030E-05  2.14714566208E-05  2.17415342974E-05
  2.20150091330E-05  2.22919238586E-05  2.25723217426E-05  2.28562465978E-05
  2.31437427880E-05  2.34348552351E-05  2.37296294261E-05  2.40281114199E-05
  2.43303478550E-05  2.46363859565E-05  2.49462735433E-05  2.52600590362E-05
  2.55777914647E-05  2.58995204752E-05  2.62252963384E-05  2.65551699575E-05
  2.68891928760E-05  2.72274172856E-05  2.75698960345E-05  2.79166826357E-05
  2.82678312754E-05  2.86233968213E-05  2.89834348311E-05  2.93480015616E-05
  2.97171539771E-05  3.00909497583E-05  3.04694473117E-05  3.08527057781E-05
  3.12407850427E-05  3.16337457434E-05  3.20316492813E-05  3.24345578295E-05
  3.28425343434E-05  3.32556425702E-05  3.36739470587E-05  3.40975131699E-05
  3.45264070870E-05  3.49606958254E-05  3.54004472437E-05  3.58457300539E-05
  3.62966138323E-05  3.67531690305E-05  3.72154669861E-05  3.76835799341E-05
  3.81575810182E-05  3.86375443019E-05  3.91235447806E-05  3.96156583927E-05
  4.01139620321E-05  4.06185335596E-05  4.11294518156E-05  4.16467966322E-05
  4.21706488454E-05  4.27010903084E-05  4.32382039035E-05  4.37820735560E-05
  4.43327842466E-05  4.48904220249E-05  4.54550740230E-05  4.60268284689E-05
  4.66057747003E-05  4.71920031789E-05  4.77856055040E-05  4.83866744272E-05
  4.89953038667E-05  4.96115889221E-05  5.02356258892E-05  5.08675122751E-05
  5.15073468132E-05  5.21552294791E-05  5.28112615057E-05  5.34755453993E-05
  5.41481849557E-05  5.48292852762E-05  5.55189527841E-05  5.62172952413E-05
  5.69244217652E-05  5.76404428458E-05  5.83654703630E-05  5.90996176036E-05
  5.98429992797E-05  6.05957315462E-05  6.13579320190E-05  6.21297197935E-05
  6.29112154632E-05  6.37025411382E-05  6.45038204650E-05  6.53151786449E-05
  6.61367424543E-05  6.69686402643E-05  6.78110020606E-05  6.86639594640E-05
  6.95276457507E-05  7.04021958735E-05  7.12877464826E-05  7.21844359472E-05
  7.30924043768E-05  7.40117936432E-05  7.49427474030E-05  7.58854111195E-05
  7.68399320859E-05  7.78064594480E-05  7.87851442278E-05  7.97761393466E-05
  8.07795996494E-05  8.17956819291E-05  8.28245449505E-05  8.38663494755E-05
  8.49212582883E-05  8.59894362204E-05  8.70710501769E-05  8.81662691622E-05
  8.92752643063E-05  9.03982088922E-05  9.15352783821E-05  9.26866504455E-05
  9.38525049866E-05  9.50330241725E-05  9.62283924618E-05  9.74387966332E-05
  9.86644258149E-05  9.99054715138E-05  1.01162127646E-04  1.02434590566E-04
  1.03723059100E-04  1.05027734572E-04  1.06348820842E-04  1.07686524331E-04
  1.09041054059E-04  1.10412621674E-04  1.11801441485E-04  1.13207730499E-04
  1.14631708451E-04  1.16073597841E-04  1.17533623966E-04  1.19012014960E-04
  1.20509001823E-04  1.22024818462E-04  1.23559701728E-04  1.25113891449E-04
  1.26687630469E-04  1.28281164690E-04  1.29894743103E-04  1.31528617835E-04
  1.33183044181E-04  1.34858280648E-04  1.36554588996E-04  1.38272234276E-04
  1.40011484874E-04  1.41772612552E-04  1.43555892489E-04  1.45361603326E-04
  1.47190027209E-04  1.49041449834E-04  1.50916160488E-04  1.52814452099E-04
  1.54736621280E-04  1.56682968372E-04  1.58653797497E-04  1.60649416601E-04
  1.62670137502E-04  1.64716275944E-04  1.66788151639E-04  1.68886088322E-04
  1.71010413800E-04  1.73161460003E-04  1.75339563036E-04  1.77545063233E-04
  1.79778305207E-04  1.82039637907E-04  1.84329414671E-04  1.86647993281E-04
  1.88995736020E-04  1.91373009727E-04  1.93780185856E-04  1.96217640533E-04
  1.98685754616E-04  2.01184913752E-04  2.03715508440E-04  2.06277934091E-04
  2.08872591089E-04  2.11499884854E-04  2.14160225907E-04  2.16854029930E-04
  2.19581717837E-04  2.22343715834E-04  2.25140455489E-04  2.27972373798E-04
  2.30839913255E-04  2.33743521917E-04  2.36683653481E-04  2.39660767347E-04
  2.42675328695E-04  2.45727808557E-04  2.48818683889E-04  2.51948437647E-04
  2.55117558860E-04  2.58326542712E-04  2.61575890611E-04  2.64866110275E-04
  2.68197715808E-04  2.71571227780E-04  2.74987173308E-04  2.78446086142E-04
  2.81948506743E-04  2.85494982372E-04  2.89086067173E-04  2.92722322260E-04
  2.96404315805E-04  3.00132623128E-04  3.03907826784E-04  3.07730516656E-04