<PP_INFO>
Generated using Vanderbilt code, version   7  3  4
Author: CAMPOS  Generation date:    9   12 2003
rinner=1.20, rpcor=1.0
    1        The Pseudo was generated with a Scalar-Relativistic Calculation
  1.80000000000E+00    Local Potential cutoff radius
nl pn  l   occ               Rcut            Rcut US             E pseu
3S  3  0  2.00     10.00000000000      2.00000000000     -3.46341305400
3P  3  1  6.00     10.00000000000      2.20000000000     -2.06270274800
4S  4  0  2.00     10.00000000000      2.00000000000     -0.27907580300
3D  3  2  0.00     10.00000000000      2.40000000000     -0.14708541300
</PP_INFO>


<PP_HEADER>
   0                   Version Number
  Ca                   Element
   US                  Ultrasoft pseudopotential
    T                  Nonlinear Core Correction
 SLA  PW   GGX  GGC    PW91 Exchange-Correlation functional
   10.00000000000      Z valence
  -74.66087607390      Total energy
  0.0000000  0.0000000 Suggested cutoff for wfc and rho
    2                  Max angular momentum component
  845                  Number of points in mesh
    4    6             Number of Wavefunctions, Number of Projectors
 Wavefunctions         nl  l   occ
                       3S  0  2.00
                       3P  1  6.00
                       4S  0  2.00
                       3D  2  0.00
</PP_HEADER>


<PP_MESH>
  <PP_R>
  0.00000000000E+00  2.11854045400E-06  4.27329440039E-06  6.46488085830E-06
  8.69392942809E-06  1.09610804723E-05  1.32669852995E-05  1.56123063516E-05
  1.79977173940E-05  2.04239037090E-05  2.28915622930E-05  2.54014020566E-05
  2.79541440282E-05  3.05505215612E-05  3.31912805446E-05  3.58771796173E-05
  3.86089903862E-05  4.13874976476E-05  4.42134996129E-05  4.70878081378E-05
  5.00112489556E-05  5.29846619141E-05  5.60089012174E-05  5.90848356709E-05
  6.22133489311E-05  6.53953397593E-05  6.86317222798E-05  7.19234262428E-05
  7.52713972912E-05  7.86765972321E-05  8.21400043136E-05  8.56626135056E-05
  8.92454367856E-05  9.28895034293E-05  9.65958603066E-05  1.00365572182E-04
  1.04199722021E-04  1.08099411300E-04  1.12065760326E-04  1.16099908552E-04
  1.20203014912E-04  1.24376258149E-04  1.28620837155E-04  1.32937971315E-04
  1.37328900858E-04  1.41794887215E-04  1.46337213375E-04  1.50957184261E-04
  1.55656127102E-04  1.60435391813E-04  1.65296351384E-04  1.70240402275E-04
  1.75268964816E-04  1.80383483616E-04  1.85585427977E-04  1.90876292317E-04
  1.96257596598E-04  2.01730886766E-04  2.07297735191E-04  2.12959741121E-04
  2.18718531140E-04  2.24575759637E-04  2.30533109281E-04  2.36592291503E-04
  2.42755046989E-04  2.49023146179E-04  2.55398389777E-04  2.61882609267E-04
  2.68477667439E-04  2.75185458927E-04  2.82007910749E-04  2.88946982863E-04
  2.96004668731E-04  3.03182995889E-04  3.10484026531E-04  3.17909858103E-04
  3.25462623902E-04  3.33144493691E-04  3.40957674324E-04  3.48904410375E-04
  3.56986984789E-04  3.65207719532E-04  3.73568976263E-04  3.82073157008E-04
  3.90722704854E-04  3.99520104650E-04  4.08467883717E-04  4.17568612580E-04
  4.26824905702E-04  4.36239422236E-04  4.45814866792E-04  4.55553990208E-04
  4.65459590347E-04  4.75534512897E-04  4.85781652186E-04  4.96203952021E-04
  5.06804406526E-04  5.17586061006E-04  5.28552012823E-04  5.39705412282E-04
  5.51049463539E-04  5.62587425520E-04  5.74322612858E-04  5.86258396847E-04
  5.98398206405E-04  6.10745529064E-04  6.23303911973E-04  6.36076962911E-04
  6.49068351328E-04  6.62281809400E-04  6.75721133096E-04  6.89390183274E-04
  7.03292886789E-04  7.17433237618E-04  7.31815298009E-04  7.46443199651E-04
  7.61321144857E-04  7.76453407772E-04  7.91844335603E-04  8.07498349866E-04
  8.23419947655E-04  8.39613702938E-04  8.56084267868E-04  8.72836374118E-04
  8.89874834245E-04  9.07204543069E-04  9.24830479080E-04  9.42757705868E-04
  9.60991373578E-04  9.79536720391E-04  9.98399074026E-04  1.01758385327E-03
  1.03709656954E-03  1.05694282847E-03  1.07712833149E-03  1.09765887752E-03
  1.11854036457E-03  1.13977879151E-03  1.16138025971E-03  1.18335097487E-03
  1.20569724874E-03  1.22842550097E-03  1.25154226096E-03  1.27505416969E-03
  1.29896798170E-03  1.32329056694E-03  1.34802891283E-03  1.37319012622E-03
  1.39878143544E-03  1.42481019238E-03  1.45128387459E-03  1.47821008744E-03
  1.50559656633E-03  1.53345117886E-03  1.56178192711E-03  1.59059694996E-03
  1.61990452542E-03  1.64971307297E-03  1.68003115605E-03  1.71086748444E-03
  1.74223091683E-03  1.77413046333E-03  1.80657528805E-03  1.83957471177E-03
  1.87313821459E-03  1.90727543864E-03  1.94199619090E-03  1.97731044596E-03
  2.01322834893E-03  2.04976021832E-03  2.08691654903E-03  2.12470801536E-03
  2.16314547407E-03  2.20223996749E-03  2.24200272671E-03  2.28244517481E-03
  2.32357893011E-03  2.36541580956E-03  2.40796783207E-03  2.45124722202E-03
  2.49526641274E-03  2.54003805010E-03  2.58557499610E-03  2.63189033265E-03
  2.67899736524E-03  2.72690962681E-03  2.77564088162E-03  2.82520512923E-03
  2.87561660847E-03  2.92688980159E-03  2.97903943840E-03  3.03208050047E-03
  3.08602822546E-03  3.14089811153E-03  3.19670592172E-03  3.25346768854E-03
  3.31119971854E-03  3.36991859703E-03  3.42964119280E-03  3.49038466299E-03
  3.55216645803E-03  3.61500432663E-03  3.67891632090E-03  3.74392080151E-03
  3.81003644300E-03  3.87728223911E-03  3.94567750826E-03  4.01524189907E-03
  4.08599539606E-03  4.15795832534E-03  4.23115136047E-03  4.30559552838E-03
  4.38131221544E-03  4.45832317360E-03  4.53665052661E-03  4.61631677640E-03
  4.69734480956E-03  4.77975790385E-03  4.86357973498E-03  4.94883438332E-03
  5.03554634090E-03  5.12374051837E-03  5.21344225223E-03  5.30467731203E-03
  5.39747190786E-03  5.49185269779E-03  5.58784679561E-03  5.68548177856E-03
  5.78478569528E-03  5.88578707387E-03  5.98851493007E-03  6.09299877560E-03
  6.19926862665E-03  6.30735501249E-03  6.41728898426E-03  6.52910212384E-03
  6.64282655300E-03  6.75849494256E-03  6.87614052181E-03  6.99579708805E-03
  7.11749901629E-03  7.24128126915E-03  7.36717940687E-03  7.49522959755E-03
  7.62546862753E-03  7.75793391196E-03  7.89266350556E-03  8.02969611354E-03
  8.16907110270E-03  8.31082851279E-03  8.45500906796E-03  8.60165418851E-03
  8.75080600273E-03  8.90250735906E-03  9.05680183835E-03  9.21373376644E-03
  9.37334822682E-03  9.53569107364E-03  9.70080894486E-03  9.86874927564E-03
  1.00395603120E-02  1.02132911246E-02  1.03899916231E-02  1.05697125699E-02
  1.07525055955E-02  1.09384232128E-02  1.11275188322E-02  1.13198467774E-02
  1.15154623004E-02  1.17144215977E-02  1.19167818266E-02  1.21226011212E-02
  1.23319386093E-02  1.25448544297E-02  1.27614097488E-02  1.29816667789E-02
  1.32056887956E-02  1.34335401560E-02  1.36652863174E-02  1.39009938559E-02
  1.41407304860E-02  1.43845650791E-02  1.46325676843E-02  1.48848095479E-02
  1.51413631341E-02  1.54023021458E-02  1.56677015458E-02  1.59376375781E-02
  1.62121877902E-02  1.64914310550E-02  1.67754475937E-02  1.70643189987E-02
  1.73581282572E-02  1.76569597750E-02  1.79608994005E-02  1.82700344497E-02
  1.85844537312E-02  1.89042475715E-02  1.92295078411E-02  1.95603279812E-02
  1.98968030298E-02  2.02390296498E-02  2.05871061563E-02  2.09411325448E-02
  2.13012105204E-02  2.16674435264E-02  2.20399367746E-02  2.24187972750E-02
  2.28041338669E-02  2.31960572500E-02  2.35946800164E-02  2.40001166827E-02
  2.44124837230E-02  2.48318996023E-02  2.52584848107E-02  2.56923618979E-02
  2.61336555084E-02  2.65824924173E-02  2.70390015667E-02  2.75033141030E-02
  2.79755634140E-02  2.84558851679E-02  2.89444173519E-02  2.94413003118E-02
  2.99466767924E-02  3.04606919786E-02  3.09834935371E-02  3.15152316586E-02
  3.20560591012E-02  3.26061312341E-02  3.31656060824E-02  3.37346443725E-02
  3.43134095780E-02  3.49020679669E-02  3.55007886494E-02  3.61097436265E-02
  3.67291078390E-02  3.73590592183E-02  3.79997787373E-02  3.86514504622E-02
  3.93142616058E-02  3.99884025809E-02  4.06740670551E-02  4.13714520066E-02
  4.20807577806E-02  4.28021881468E-02  4.35359503583E-02  4.42822552108E-02
  4.50413171032E-02  4.58133540992E-02  4.65985879903E-02  4.73972443588E-02
  4.82095526433E-02  4.90357462043E-02  4.98760623912E-02  5.07307426105E-02
  5.16000323954E-02  5.24841814759E-02  5.33834438511E-02  5.42980778615E-02
  5.52283462638E-02  5.61745163062E-02  5.71368598050E-02  5.81156532229E-02
  5.91111777482E-02  6.01237193759E-02  6.11535689896E-02  6.22010224452E-02
  6.32663806557E-02  6.43499496781E-02  6.54520408006E-02  6.65729706328E-02
  6.77130611961E-02  6.88726400164E-02  7.00520402184E-02  7.12516006208E-02
  7.24716658341E-02  7.37125863596E-02  7.49747186896E-02  7.62584254103E-02
  7.75640753058E-02  7.88920434642E-02  8.02427113848E-02  8.16164670886E-02
  8.30137052289E-02  8.44348272052E-02  8.58802412783E-02  8.73503626878E-02
  8.88456137711E-02  9.03664240848E-02  9.19132305284E-02  9.34864774693E-02
  9.50866168711E-02  9.67141084228E-02  9.83694196712E-02  1.00053026155E-01
  1.01765411543E-01  1.03507067768E-01  1.05278495176E-01  1.07080202664E-01
  1.08912707826E-01  1.10776537107E-01  1.12672225948E-01  1.14600318944E-01
  1.16561369999E-01  1.18555942485E-01  1.20584609404E-01  1.22647953552E-01
  1.24746567690E-01  1.26881054707E-01  1.29052027801E-01  1.31260110650E-01
  1.33505937593E-01  1.35790153814E-01  1.38113415523E-01  1.40476390149E-01
  1.42879756529E-01  1.45324205102E-01  1.47810438112E-01  1.50339169806E-01
  1.52911126639E-01  1.55527047484E-01  1.58187683846E-01  1.60893800073E-01
  1.63646173580E-01  1.66445595071E-01  1.69292868765E-01  1.72188812630E-01
  1.75134258613E-01  1.78130052885E-01  1.81177056079E-01  1.84276143540E-01
  1.87428205576E-01  1.90634147713E-01  1.93894890957E-01  1.97211372056E-01
  2.00584543771E-01  2.04015375149E-01  2.07504851801E-01  2.11053976186E-01
  2.14663767900E-01  2.18335263965E-01  2.22069519131E-01  2.25867606178E-01
  2.29730616222E-01  2.33659659032E-01  2.37655863345E-01  2.41720377193E-01
  2.45854368234E-01  2.50059024081E-01  2.54335552653E-01  2.58685182512E-01
  2.63109163223E-01  2.67608765710E-01  2.72185282621E-01  2.76840028703E-01
  2.81574341172E-01  2.86389580106E-01  2.91287128829E-01  2.96268394313E-01
  3.01334807578E-01  3.06487824107E-01  3.11728924262E-01  3.17059613709E-01
  3.22481423854E-01  3.27995912275E-01  3.33604663181E-01  3.39309287855E-01
  3.45111425127E-01  3.51012741837E-01  3.57014933321E-01  3.63119723892E-01
  3.69328867338E-01  3.75644147425E-01  3.82067378412E-01  3.88600405568E-01
  3.95245105705E-01  4.02003387718E-01  4.08877193130E-01  4.15868496653E-01
  4.22979306752E-01  4.30211666226E-01  4.37567652791E-01  4.45049379680E-01
  4.52658996250E-01  4.60398688594E-01  4.68270680177E-01  4.76277232470E-01
  4.84420645601E-01  4.92703259014E-01  5.01127452144E-01  5.09695645098E-01
  5.18410299354E-01  5.27273918461E-01  5.36289048767E-01  5.45458280144E-01
  5.54784246734E-01  5.64269627708E-01  5.73917148032E-01  5.83729579252E-01
  5.93709740289E-01  6.03860498250E-01  6.14184769252E-01  6.24685519258E-01
  6.35365764931E-01  6.46228574498E-01  6.57277068634E-01  6.68514421358E-01
  6.79943860944E-01  6.91568670848E-01  7.03392190654E-01  7.15417817030E-01
  7.27649004706E-01  7.40089267465E-01  7.52742179154E-01  7.65611374710E-01
  7.78700551203E-01  7.92013468902E-01  8.05553952348E-01  8.19325891462E-01
  8.33333242655E-01  8.47580029967E-01  8.62070346226E-01  8.76808354218E-01
  8.91798287888E-01  9.07044453554E-01  9.22551231144E-01  9.38323075456E-01
  9.54364517435E-01  9.70680165477E-01  9.87274706752E-01  1.00415290855E+00
  1.02131961965E+00  1.03877977172E+00  1.05653838073E+00  1.07460054837E+00
  1.09297146355E+00  1.11165640390E+00  1.13066073722E+00  1.14998992310E+00
  1.16964951443E+00  1.18964515904E+00  1.20998260129E+00  1.23066768373E+00
  1.25170634879E+00  1.27310464047E+00  1.29486870607E+00  1.31700479801E+00
  1.33951927554E+00  1.36241860665E+00  1.38570936986E+00  1.40939825616E+00
  1.43349207091E+00  1.45799773581E+00  1.48292229084E+00  1.50827289635E+00
  1.53405683509E+00  1.56028151428E+00  1.58695446776E+00  1.61408335815E+00
  1.64167597906E+00  1.66974025732E+00  1.69828425524E+00  1.72731617298E+00
  1.75684435083E+00  1.78687727167E+00  1.81742356338E+00  1.84849200132E+00
  1.88009151084E+00  1.91223116988E+00  1.94492021153E+00  1.97816802673E+00
  2.01198416693E+00  2.04637834685E+00  2.08136044728E+00  2.11694051789E+00
  2.15312878015E+00  2.18993563025E+00  2.22737164209E+00  2.26544757030E+00
  2.30417435337E+00  2.34356311674E+00  2.38362517605E+00  2.42437204036E+00
  2.46581541544E+00  2.50796720718E+00  2.55083952498E+00  2.59444468521E+00
  2.63879521480E+00  2.68390385480E+00  2.72978356405E+00  2.77644752289E+00
  2.82390913699E+00  2.87218204114E+00  2.92128010322E+00  2.97121742815E+00
  3.02200836195E+00  3.07366749588E+00  3.12620967061E+00  3.17964998049E+00
  3.23400377788E+00  3.28928667759E+00  3.34551456131E+00  3.40270358223E+00
  3.46087016965E+00  3.52003103370E+00  3.58020317016E+00  3.64140386532E+00
  3.70365070094E+00  3.76696155935E+00  3.83135462852E+00  3.89684840735E+00
  3.96346171092E+00  4.03121367595E+00  4.10012376626E+00  4.17021177840E+00
  4.24149784728E+00  4.31400245203E+00  4.38774642181E+00  4.46275094183E+00
  4.53903755945E+00  4.61662819032E+00  4.69554512475E+00  4.77581103403E+00
  4.85744897701E+00  4.94048240669E+00  5.02493517697E+00  5.11083154949E+00
  5.19819620063E+00  5.28705422854E+00  5.37743116044E+00  5.46935295985E+00
  5.56284603414E+00  5.65793724205E+00  5.75465390145E+00  5.85302379716E+00
  5.95307518895E+00  6.05483681965E+00  6.15833792341E+00  6.26360823410E+00
  6.37067799382E+00  6.47957796166E+00  6.59033942247E+00  6.70299419587E+00
  6.81757464540E+00  6.93411368780E+00  7.05264480249E+00  7.17320204117E+00
  7.29582003758E+00  7.42053401752E+00  7.54737980889E+00  7.67639385204E+00
  7.80761321020E+00  7.94107558016E+00  8.07681930307E+00  8.21488337548E+00
  8.35530746052E+00  8.49813189932E+00  8.64339772257E+00  8.79114666233E+00
  8.94142116402E+00  9.09426439859E+00  9.24972027495E+00  9.40783345255E+00
  9.56864935427E+00  9.73221417938E+00  9.89857491691E+00  1.00677793591E+01
  1.02398761150E+01  1.04149146248E+01  1.05929451737E+01  1.07740189063E+01
  1.09581878417E+01  1.11455048880E+01  1.13360238578E+01  1.15297994835E+01
  1.17268874330E+01  1.19273443260E+01  1.21312277499E+01  1.23385962763E+01
  1.25495094783E+01  1.27640279471E+01  1.29822133097E+01  1.32041282466E+01
  1.34298365097E+01  1.36594029405E+01  1.38928934890E+01  1.41303752327E+01
  1.43719163953E+01  1.46175863669E+01  1.48674557239E+01  1.51215962488E+01
  1.53800809514E+01  1.56429840891E+01  1.59103811891E+01  1.61823490693E+01
  1.64589658609E+01  1.67403110305E+01  1.70264654031E+01  1.73175111853E+01
  1.76135319890E+01  1.79146128552E+01  1.82208402786E+01  1.85323022325E+01
  1.88490881938E+01  1.91712891689E+01  1.94989977201E+01  1.98323079916E+01
  2.01713157370E+01  2.05161183467E+01  2.08668148758E+01  2.12235060727E+01
  2.15862944077E+01  2.19552841030E+01  2.23305811622E+01  2.27122934009E+01
  2.31005304775E+01  2.34954039251E+01  2.38970271833E+01  2.43055156305E+01
  2.47209866176E+01  2.51435595015E+01  2.55733556790E+01  2.60104986223E+01
  2.64551139142E+01  2.69073292840E+01  2.73672746444E+01  2.78350821289E+01
  2.83108861294E+01  2.87948233353E+01  2.92870327723E+01  2.97876558427E+01
  3.02968363658E+01  3.08147206193E+01  3.13414573814E+01  3.18771979733E+01
  3.24220963030E+01  3.29763089091E+01  3.35399950062E+01  3.41133165305E+01
  3.46964381862E+01  3.52895274927E+01  3.58927548332E+01  3.65062935032E+01
  3.71303197605E+01  3.77650128757E+01  3.84105551840E+01  3.90671321371E+01
  3.97349323569E+01  4.04141476895E+01  4.11049732603E+01  4.18076075300E+01
  4.25222523520E+01  4.32491130299E+01  4.39883983766E+01  4.47403207746E+01
  4.55050962366E+01  4.62829444678E+01  4.70740889289E+01  4.78787569004E+01
  4.86971795480E+01  4.95295919884E+01  5.03762333578E+01  5.12373468799E+01
  5.21131799358E+01  5.30039841355E+01  5.39100153897E+01  5.48315339838E+01
  5.57688046522E+01  5.67220966545E+01  5.76916838533E+01  5.86778447920E+01
  5.96808627756E+01  6.07010259519E+01  6.17386273939E+01  6.27939651845E+01
  6.38673425018E+01  6.49590677062E+01  6.60694544295E+01  6.71988216640E+01
  6.83474938553E+01  6.95158009947E+01  7.07040787140E+01  7.19126683826E+01
  7.31419172048E+01  7.43921783201E+01  7.56638109043E+01  7.69571802728E+01
  7.82726579857E+01  7.96106219541E+01  8.09714565493E+01  8.23555527127E+01
  8.37633080683E+01  8.51951270371E+01  8.66514209528E+01  8.81326081806E+01
  8.96391142370E+01  9.11713719118E+01  9.27298213932E+01  9.43149103935E+01
  9.59270942780E+01  9.75668361961E+01  9.92346072138E+01  1.00930886449E+02
  1.02656161211E+02  1.04410927137E+02  1.06195688338E+02  1.08010957541E+02
  1.09857256237E+02  1.11735114832E+02  1.13645072800E+02  1.15587678833E+02
  1.17563491006E+02  1.19573076930E+02  1.21617013921E+02  1.23695889162E+02
  1.25810299874E+02  1.27960853486E+02  1.30148167811E+02  1.32372871222E+02
  1.34635602833E+02  1.36937012683E+02  1.39277761922E+02  1.41658523002E+02
  1.44079979871E+02  1.46542828166E+02  1.49047775414E+02  1.51595541241E+02
  1.54186857568E+02  1.56822468831E+02  1.59503132191E+02  1.62229617750E+02
  1.65002708774E+02  1.67823201919E+02  1.70691907458E+02  1.73609649514E+02
  1.76577266299E+02  1.79595610352E+02  1.82665548783E+02  1.85787963527E+02
  1.88963751594E+02  1.92193825326E+02  1.95479112660E+02  1.98820557396E+02
  2.02219119467E+02
  </PP_R>
  <PP_RAB>
  2.10063743785E-06  2.13654490317E-06  2.17306615650E-06  2.21021168969E-06
  2.24799217392E-06  2.28641846281E-06  2.32550159547E-06  2.36525279975E-06
  2.40568349538E-06  2.44680529733E-06  2.48863001909E-06  2.53116967610E-06
  2.57443648918E-06  2.61844288804E-06  2.66320151488E-06  2.70872522798E-06
  2.75502710541E-06  2.80212044883E-06  2.85001878722E-06  2.89873588087E-06
  2.94828572524E-06  2.99868255504E-06  3.04994084832E-06  3.10207533058E-06
  3.15510097906E-06  3.20903302699E-06  3.26388696802E-06  3.31967856061E-06
  3.37642383262E-06  3.43413908585E-06  3.49284090080E-06  3.55254614134E-06
  3.61327195964E-06  3.67503580106E-06  3.73785540915E-06  3.80174883077E-06
  3.86673442126E-06  3.93283084972E-06  4.00005710439E-06  4.06843249805E-06
  4.13797667365E-06  4.20870960987E-06  4.28065162692E-06  4.35382339234E-06
  4.42824592698E-06  4.50394061098E-06  4.58092918996E-06  4.65923378126E-06
  4.73887688026E-06  4.81988136689E-06  4.90227051216E-06  4.98606798489E-06
  5.07129785847E-06  5.15798461779E-06  5.24615316628E-06  5.33582883305E-06
  5.42703738020E-06  5.51980501017E-06  5.61415837330E-06  5.71012457550E-06
  5.80773118599E-06  5.90700624526E-06  6.00797827313E-06  6.11067627689E-06
  6.21512975970E-06  6.32136872902E-06  6.42942370526E-06  6.53932573051E-06
  6.65110637750E-06  6.76479775865E-06  6.88043253529E-06  6.99804392706E-06
  7.11766572142E-06  7.23933228342E-06  7.36307856550E-06  7.48894011756E-06
  7.61695309720E-06  7.74715428008E-06  7.87958107046E-06  8.01427151201E-06
  8.15126429868E-06  8.29059878585E-06  8.43231500163E-06  8.57645365833E-06
  8.72305616420E-06  8.87216463531E-06  9.02382190764E-06  9.17807154938E-06
  9.33495787348E-06  9.49452595033E-06  9.65682162076E-06  9.82189150918E-06
  9.98978303696E-06  1.01605444361E-05  1.03342247630E-05  1.05108739128E-05
  1.06905426332E-05  1.08732825397E-05  1.10591461298E-05  1.12481867986E-05
  1.14404588538E-05  1.16360175314E-05  1.18349190117E-05  1.20372204353E-05
  1.22429799193E-05  1.24522565745E-05  1.26651105221E-05  1.28816029109E-05
  1.31017959349E-05  1.33257528514E-05  1.35535379988E-05  1.37852168154E-05
  1.40208558580E-05  1.42605228212E-05  1.45042865567E-05  1.47522170930E-05
  1.50043856558E-05  1.52608646882E-05  1.55217278718E-05  1.57870501474E-05
  1.60569077371E-05  1.63313781656E-05  1.66105402831E-05  1.68944742873E-05
  1.71832617471E-05  1.74769856255E-05  1.77757303036E-05  1.80795816051E-05
  1.83886268205E-05  1.87029547326E-05  1.90226556417E-05  1.93478213916E-05
  1.96785453962E-05  2.00149226661E-05  2.03570498360E-05  2.07050251924E-05
  2.10589487018E-05  2.14189220397E-05  2.17850486194E-05  2.21574336221E-05
  2.25361840266E-05  2.29214086408E-05  2.33132181320E-05  2.37117250598E-05
  2.41170439073E-05  2.45292911148E-05  2.49485851130E-05  2.53750463569E-05
  2.58087973606E-05  2.62499627324E-05  2.66986692105E-05  2.71550456996E-05
  2.76192233079E-05  2.80913353846E-05  2.85715175583E-05  2.90599077762E-05
  2.95566463432E-05  3.00618759628E-05  3.05757417776E-05  3.10983914114E-05
  3.16299750113E-05  3.21706452909E-05  3.27205575743E-05  3.32798698408E-05
  3.38487427699E-05  3.44273397878E-05  3.50158271142E-05  3.56143738101E-05
  3.62231518265E-05  3.68423360535E-05  3.74721043706E-05  3.81126376983E-05
  3.87641200492E-05  3.94267385817E-05  4.01006836533E-05  4.07861488753E-05
  4.14833311686E-05  4.21924308202E-05  4.29136515408E-05  4.36472005230E-05
  4.43932885013E-05  4.51521298124E-05  4.59239424566E-05  4.67089481608E-05
  4.75073724420E-05  4.83194446719E-05  4.91453981433E-05  4.99854701366E-05
  5.08399019882E-05  5.17089391598E-05  5.25928313090E-05  5.34918323610E-05
  5.44062005813E-05  5.53361986502E-05  5.62820937382E-05  5.72441575826E-05
  5.82226665657E-05  5.92179017943E-05  6.02301491802E-05  6.12596995224E-05
  6.23068485909E-05  6.33718972113E-05  6.44551513514E-05  6.55569222093E-05
  6.66775263023E-05  6.78172855584E-05  6.89765274083E-05  7.01555848797E-05
  7.13547966932E-05  7.25745073589E-05  7.38150672763E-05  7.50768328340E-05
  7.63601665131E-05  7.76654369904E-05  7.89930192448E-05  8.03432946650E-05
  8.17166511591E-05  8.31134832658E-05  8.45341922680E-05  8.59791863077E-05
  8.74488805039E-05  8.89436970713E-05  9.04640654417E-05  9.20104223875E-05
  9.35832121473E-05  9.51828865529E-05  9.68099051600E-05  9.84647353795E-05
  1.00147852612E-04  1.01859740385E-04  1.03600890490E-04  1.05371803126E-04
  1.07172987042E-04  1.09004959683E-04  1.10868247340E-04  1.12763385300E-04
  1.14690917997E-04  1.16651399176E-04  1.18645392045E-04  1.20673469439E-04
  1.22736213985E-04  1.24834218271E-04  1.26968085012E-04  1.29138427227E-04
  1.31345868413E-04  1.33591042725E-04  1.35874595159E-04  1.38197181735E-04
  1.40559469687E-04  1.42962137655E-04  1.45405875878E-04  1.47891386396E-04
  1.50419383247E-04  1.52990592676E-04  1.55605753342E-04  1.58265616530E-04
  1.60970946367E-04  1.63722520042E-04  1.66521128029E-04  1.69367574313E-04
  1.72262676624E-04  1.75207266669E-04  1.78202190371E-04  1.81248308114E-04
  1.84346494989E-04  1.87497641044E-04  1.90702651544E-04  1.93962447224E-04
  1.97277964563E-04  2.00650156044E-04  2.04079990431E-04  2.07568453051E-04
  2.11116546070E-04  2.14725288788E-04  2.18395717926E-04  2.22128887928E-04
  2.25925871261E-04  2.29787758725E-04  2.33715659766E-04  2.37710702793E-04
  2.41774035505E-04  2.45906825219E-04  2.50110259205E-04  2.54385545029E-04
  2.58733910897E-04  2.63156606011E-04  2.67654900926E-04  2.72230087915E-04
  2.76883481340E-04  2.81616418031E-04  2.86430257669E-04  2.91326383178E-04
  2.96306201120E-04  3.01371142099E-04  3.06522661175E-04  3.11762238281E-04
  3.17091378645E-04  3.22511613226E-04  3.28024499152E-04  3.33631620170E-04
  3.39334587096E-04  3.45135038282E-04  3.51034640086E-04  3.57035087350E-04
  3.63138103885E-04  3.69345442971E-04  3.75658887855E-04  3.82080252268E-04
  3.88611380944E-04  3.95254150150E-04  4.02010468225E-04  4.08882276128E-04
  4.15871547997E-04  4.22980291714E-04  4.30210549483E-04  4.37564398419E-04
  4.45043951139E-04  4.52651356375E-04  4.60388799586E-04  4.68258503590E-04
  4.76262729201E-04  4.84403775878E-04  4.92683982386E-04  5.01105727468E-04
  5.09671430529E-04  5.18383552330E-04  5.27244595694E-04  5.36257106227E-04
  5.45423673051E-04  5.54746929541E-04  5.64229554089E-04  5.73874270870E-04
  5.83683850623E-04  5.93661111453E-04  6.03808919632E-04  6.14130190429E-04
  6.24627888946E-04  6.35305030968E-04  6.46164683832E-04  6.57209967306E-04
  6.68444054486E-04  6.79870172708E-04  6.91491604474E-04  7.03311688398E-04
  7.15333820160E-04  7.27561453486E-04  7.39998101138E-04  7.52647335926E-04
  7.65512791729E-04  7.78598164543E-04  7.91907213544E-04  8.05443762163E-04
  8.19211699189E-04  8.33214979884E-04  8.47457627119E-04  8.61943732531E-04
  8.76677457698E-04  8.91663035335E-04  9.06904770507E-04  9.22407041870E-04
  9.38174302927E-04  9.54211083306E-04  9.70521990066E-04  9.87111709012E-04
  1.00398500605E-03  1.02114672855E-03  1.03860180675E-03  1.05635525515E-03
  1.07441217398E-03  1.09277775063E-03  1.11145726118E-03  1.13045607189E-03
  1.14977964076E-03  1.16943351907E-03  1.18942335300E-03  1.20975488525E-03
  1.23043395666E-03  1.25146650794E-03  1.27285858133E-03  1.29461632236E-03
  1.31674598160E-03  1.33925391649E-03  1.36214659311E-03  1.38543058809E-03
  1.40911259047E-03  1.43319940363E-03  1.45769794724E-03  1.48261525926E-03
  1.50795849796E-03  1.53373494396E-03  1.55995200233E-03  1.58661720471E-03
  1.61373821152E-03  1.64132281410E-03  1.66937893695E-03  1.69791464007E-03
  1.72693812121E-03  1.75645771825E-03  1.78648191161E-03  1.81701932665E-03
  1.84807873618E-03  1.87966906297E-03  1.91179938231E-03  1.94447892462E-03
  1.97771707810E-03  2.01152339142E-03  2.04590757649E-03  2.08087951121E-03
  2.11644924235E-03  2.15262698840E-03  2.18942314253E-03  2.22684827557E-03
  2.26491313902E-03  2.30362866819E-03  2.34300598529E-03  2.38305640268E-03
  2.42379142606E-03  2.46522275781E-03  2.50736230036E-03  2.55022215957E-03
  2.59381464827E-03  2.63815228972E-03  2.68324782127E-03  2.72911419799E-03
  2.77576459642E-03  2.82321241830E-03  2.87147129448E-03  2.92055508879E-03
  2.97047790207E-03  3.02125407617E-03  3.07289819810E-03  3.12542510421E-03
  3.17884988448E-03  3.23318788681E-03  3.28845472146E-03  3.34466626551E-03
  3.40183866746E-03  3.45998835182E-03  3.51913202389E-03  3.57928667449E-03
  3.64046958489E-03  3.70269833176E-03  3.76599079220E-03  3.83036514893E-03
  3.89583989544E-03  3.96243384136E-03  4.03016611786E-03  4.09905618309E-03
  4.16912382784E-03  4.24038918119E-03  4.31287271630E-03  4.38659525628E-03
  4.46157798019E-03  4.53784242912E-03  4.61541051238E-03  4.69430451376E-03
  4.77454709798E-03  4.85616131720E-03  4.93917061759E-03  5.02359884613E-03
  5.10947025740E-03  5.19680952060E-03  5.28564172662E-03  5.37599239522E-03
  5.46788748241E-03  5.56135338787E-03  5.65641696253E-03  5.75310551633E-03
  5.85144682602E-03  5.95146914316E-03  6.05320120221E-03  6.15667222883E-03
  6.26191194825E-03  6.36895059379E-03  6.47781891560E-03  6.58854818943E-03
  6.70117022566E-03  6.81571737842E-03  6.93222255490E-03  7.05071922477E-03
  7.17124142984E-03  7.29382379380E-03  7.41850153220E-03  7.54531046253E-03
  7.67428701455E-03  7.80546824072E-03  7.93889182688E-03  8.07459610304E-03
  8.21262005440E-03  8.35300333259E-03  8.49578626699E-03  8.64100987639E-03
  8.78871588072E-03  8.93894671305E-03  9.09174553179E-03  9.24715623310E-03
  9.40522346345E-03  9.56599263250E-03  9.72950992612E-03  9.89582231967E-03
  1.00649775915E-02  1.02370243366E-02  1.04120119807E-02  1.05899907944E-02
  1.07710119075E-02  1.09551273238E-02  1.11423899363E-02  1.13328535418E-02
  1.15265728568E-02  1.17236035332E-02  1.19240021739E-02  1.21278263498E-02
  1.23351346155E-02  1.25459865267E-02  1.27604426570E-02  1.29785646156E-02
  1.32004150646E-02  1.34260577375E-02  1.36555574569E-02  1.38889801537E-02
  1.41263928858E-02  1.43678638572E-02  1.46134624379E-02  1.48632591835E-02
  1.51173258559E-02  1.53757354434E-02  1.56385621823E-02  1.59058815774E-02
  1.61777704245E-02  1.64543068320E-02  1.67355702434E-02  1.70216414603E-02
  1.73126026655E-02  1.76085374463E-02  1.79095308193E-02  1.82156692538E-02
  1.85270406977E-02  1.88437346018E-02  1.91658419463E-02  1.94934552662E-02
  1.98266686787E-02  2.01655779094E-02  2.05102803204E-02  2.08608749380E-02
  2.12174624814E-02  2.15801453911E-02  2.19490278590E-02  2.23242158579E-02
  2.27058171720E-02  2.30939414280E-02  2.34887001265E-02  2.38902066741E-02
  2.42985764156E-02  2.47139266681E-02  2.51363767534E-02  2.55660480333E-02
  2.60030639441E-02  2.64475500320E-02  2.68996339892E-02  2.73594456908E-02
  2.78271172316E-02  2.83027829648E-02  2.87865795398E-02  2.92786459421E-02
  2.97791235328E-02  3.02881560895E-02  3.08058898473E-02  3.13324735411E-02
  3.18680584483E-02  3.24127984319E-02  3.29668499854E-02  3.35303722769E-02
  3.41035271955E-02  3.46864793976E-02  3.52793963540E-02  3.58824483983E-02
  3.64958087756E-02  3.71196536926E-02  3.77541623677E-02  3.83995170832E-02
  3.90559032369E-02  3.97235093957E-02  4.04025273502E-02  4.10931521689E-02
  4.17955822551E-02  4.25100194033E-02  4.32366688574E-02  4.39757393698E-02
  4.47274432612E-02  4.54919964816E-02  4.62696186722E-02  4.70605332288E-02
  4.78649673661E-02  4.86831521822E-02  4.95153227259E-02  5.03617180636E-02
  5.12225813484E-02  5.20981598897E-02  5.29887052241E-02  5.38944731881E-02
  5.48157239914E-02  5.57527222915E-02  5.67057372698E-02  5.76750427091E-02
  5.86609170722E-02  5.96636435815E-02  6.06835103012E-02  6.17208102191E-02
  6.27758413313E-02  6.38489067281E-02  6.49403146802E-02  6.60503787281E-02
  6.71794177716E-02  6.83277561619E-02  6.94957237944E-02  7.06836562035E-02
  7.18918946592E-02  7.31207862651E-02  7.43706840579E-02  7.56419471092E-02
  7.69349406281E-02  7.82500360667E-02  7.95876112264E-02  8.09480503668E-02
  8.23317443156E-02  8.37390905814E-02  8.51704934675E-02  8.66263641882E-02
  8.81071209871E-02  8.96131892568E-02  9.11450016618E-02  9.27029982620E-02
  9.42876266397E-02  9.58993420280E-02  9.75386074416E-02  9.92058938096E-02
  1.00901680111E-01  1.02626453513E-01  1.04380709509E-01  1.06164952063E-01