<PP_INFO>
Generated using ld1 code (maybe, or maybe not)                                  
Author: Eduardo Menendez-Proupin    Generation date: Dec 4, 2010                                 
Info: automatically converted from PWSCF format                                 
    1        The Pseudo was generated with a Scalar-Relativistic Calculation
nl pn  l   occ               Rcut            Rcut US             E pseu
5S  0  0  1.00      2.40000000000      0.00000000000     -0.5091300000
5P  0  1  1.00      2.40000000000      0.00000000000     -0.15250000000
4D  0  2 10.00      2.10000000000      0.00000000000     -1.00418000000
</PP_INFO>


<PP_HEADER>
   0                   Version Number
  Cd                   Element
   NC                  Norm - Conserving pseudopotential
    T                  Nonlinear Core Correction
SLA  PW   PBE  PBE     PBE  Exchange-Correlation functional
   12.00000000000      Z valence
    0.00000000000      Total energy
 80.0000000 180.000000 Suggested cutoff for wfc and rho. Always test ecutrho>180 !
    2                  Max angular momentum component
  849                  Number of points in mesh
    3    2             Number of Wavefunctions, Number of Projectors
 Wavefunctions         nl  l   occ
                       5S  0  1.00
                       5P  1  1.00
                       4D  2 10.00
</PP_HEADER>


<PP_MESH>
  <PP_R>
  2.57103758514E-06  2.62297598962E-06  2.67596361947E-06  2.73002167044E-06
  2.78517176649E-06  2.84143596838E-06  2.89883678254E-06  2.95739717006E-06
  3.01714055589E-06  3.07809083817E-06  3.14027239782E-06  3.20371010831E-06
  3.26842934555E-06  3.33445599812E-06  3.40181647754E-06  3.47053772891E-06
  3.54064724165E-06  3.61217306049E-06  3.68514379672E-06  3.75958863961E-06
  3.83553736807E-06  3.91302036263E-06  3.99206861751E-06  4.07271375306E-06
  4.15498802842E-06  4.23892435439E-06  4.32455630662E-06  4.41191813903E-06
  4.50104479753E-06  4.59197193396E-06  4.68473592039E-06  4.77937386366E-06
  4.87592362019E-06  4.97442381119E-06  5.07491383803E-06  5.17743389808E-06
  5.28202500072E-06  5.38872898379E-06  5.49758853031E-06  5.60864718553E-06
  5.72194937442E-06  5.83754041935E-06  5.95546655828E-06  6.07577496324E-06
  6.19851375920E-06  6.32373204331E-06  6.45147990455E-06  6.58180844378E-06
  6.71476979415E-06  6.85041714196E-06  6.98880474797E-06  7.12998796906E-06
  7.27402328041E-06  7.42096829806E-06  7.57088180198E-06  7.72382375956E-06
  7.87985534964E-06  8.03903898692E-06  8.20143834698E-06  8.36711839174E-06
  8.53614539541E-06  8.70858697106E-06  8.88451209762E-06  9.06399114747E-06
  9.24709591464E-06  9.43389964347E-06  9.62447705795E-06  9.81890439158E-06
  1.00172594179E-05  1.02196214815E-05  1.04260715300E-05  1.06366921461E-05
  1.08515675809E-05  1.10707837875E-05  1.12944284551E-05  1.15225910447E-05
  1.17553628244E-05  1.19928369060E-05  1.22351082822E-05  1.24822738649E-05
  1.27344325235E-05  1.29916851250E-05  1.32541345737E-05  1.35218858530E-05
  1.37950460669E-05  1.40737244832E-05  1.43580325769E-05  1.46480840751E-05
  1.49439950023E-05  1.52458837267E-05  1.55538710078E-05  1.58680800448E-05
  1.61886365254E-05  1.65156686764E-05  1.68493073151E-05  1.71896859014E-05
  1.75369405912E-05  1.78912102911E-05  1.82526367137E-05  1.86213644344E-05
  1.89975409491E-05  1.93813167334E-05  1.97728453029E-05  2.01722832742E-05
  2.05797904277E-05  2.09955297718E-05  2.14196676078E-05  2.18523735964E-05
  2.22938208258E-05  2.27441858808E-05  2.32036489134E-05  2.36723937150E-05
  2.41506077897E-05  2.46384824295E-05  2.51362127908E-05  2.56439979724E-05
  2.61620410950E-05  2.66905493830E-05  2.72297342466E-05  2.77798113669E-05
  2.83410007822E-05  2.89135269757E-05  2.94976189656E-05  3.00935103963E-05
  3.07014396324E-05  3.13216498537E-05  3.19543891526E-05  3.25999106332E-05
  3.32584725128E-05  3.39303382248E-05  3.46157765245E-05  3.53150615963E-05
  3.60284731637E-05  3.67562966007E-05  3.74988230465E-05  3.82563495214E-05
  3.90291790463E-05  3.98176207632E-05  4.06219900593E-05  4.14426086930E-05
  4.22798049228E-05  4.31339136383E-05  4.40052764944E-05  4.48942420479E-05
  4.58011658967E-05  4.67264108226E-05  4.76703469359E-05  4.86333518235E-05
  4.96158107004E-05  5.06181165630E-05  5.16406703472E-05  5.26838810881E-05
  5.37481660839E-05  5.48339510628E-05  5.59416703532E-05  5.70717670577E-05
  5.82246932299E-05  5.94009100558E-05  6.06008880378E-05  6.18251071829E-05
  6.30740571953E-05  6.43482376716E-05  6.56481583009E-05  6.69743390689E-05
  6.83273104655E-05  6.97076136973E-05  7.11158009041E-05  7.25524353794E-05
  7.40180917963E-05  7.55133564368E-05  7.70388274267E-05  7.85951149748E-05
  8.01828416169E-05  8.18026424647E-05  8.34551654602E-05  8.51410716347E-05
  8.68610353730E-05  8.86157446836E-05  9.04059014737E-05  9.22322218298E-05
  9.40954363044E-05  9.59962902082E-05  9.79355439080E-05  9.99139731312E-05
  1.01932369276E-04  1.03991539727E-04  1.06092308181E-04  1.08235514973E-04
  1.10422017414E-04  1.12652690134E-04  1.14928425433E-04  1.17250133633E-04
  1.19618743451E-04  1.22035202361E-04  1.24500476979E-04  1.27015553448E-04
  1.29581437832E-04  1.32199156519E-04  1.34869756631E-04  1.37594306444E-04
  1.40373895814E-04  1.43209636615E-04  1.46102663179E-04  1.49054132757E-04
  1.52065225975E-04  1.55137147311E-04  1.58271125575E-04  1.61468414399E-04
  1.64730292742E-04  1.68058065398E-04  1.71453063521E-04  1.74916645156E-04
  1.78450195781E-04  1.82055128864E-04  1.85732886426E-04  1.89484939619E-04
  1.93312789314E-04  1.97217966702E-04  2.01202033907E-04  2.05266584608E-04
  2.09413244680E-04  2.13643672842E-04  2.17959561321E-04  2.22362636532E-04
  2.26854659762E-04  2.31437427880E-04  2.36112774056E-04  2.40882568489E-04
  2.45748719161E-04  2.50713172598E-04  2.55777914647E-04  2.60944971272E-04
  2.66216409365E-04  2.71594337572E-04  2.77080907134E-04  2.82678312754E-04
  2.88388793468E-04  2.94214633545E-04  3.00158163398E-04  3.06221760519E-04
  3.12407850427E-04  3.18718907640E-04  3.25157456666E-04  3.31726073011E-04
  3.38427384207E-04  3.45264070870E-04  3.52238867765E-04  3.59354564903E-04
  3.66614008659E-04  3.74020102906E-04  3.81575810182E-04  3.89284152869E-04
  3.97148214409E-04  4.05171140529E-04  4.13356140508E-04  4.21706488454E-04
  4.30225524619E-04  4.38916656730E-04  4.47783361356E-04  4.56829185297E-04
  4.66057747003E-04  4.75472738023E-04  4.85077924477E-04  4.94877148569E-04
  5.04874330119E-04  5.15073468132E-04  5.25478642401E-04  5.36094015132E-04
  5.46923832618E-04  5.57972426930E-04  5.69244217652E-04  5.80743713651E-04
  5.92475514879E-04  6.04444314212E-04  6.16654899331E-04  6.29112154632E-04
  6.41821063182E-04  6.54786708716E-04  6.68014277664E-04  6.81509061230E-04
  6.95276457507E-04  7.09321973637E-04  7.23651228015E-04  7.38269952533E-04
  7.53183994876E-04  7.68399320859E-04  7.83922016816E-04  7.99758292032E-04
  8.15914481229E-04  8.32397047097E-04  8.49212582883E-04  8.66367815024E-04
  8.83869605844E-04  9.01724956291E-04  9.19941008744E-04  9.38525049866E-04
  9.57484513522E-04  9.76826983750E-04  9.96560197796E-04  1.01669204921E-03
  1.03723059100E-03  1.05818403885E-03  1.07956077443E-03  1.10136934872E-03
  1.12361848542E-03  1.14631708451E-03  1.16947422571E-03  1.19309917220E-03
  1.21720137426E-03  1.24179047310E-03  1.26687630469E-03  1.29246890369E-03
  1.31857850749E-03  1.34521556027E-03  1.37239071722E-03  1.40011484874E-03
  1.42839904488E-03  1.45725461968E-03  1.48669311576E-03  1.51672630890E-03
  1.54736621280E-03  1.57862508381E-03  1.61051542590E-03  1.64304999564E-03
  1.67624180728E-03  1.71010413800E-03  1.74465053317E-03  1.77989481182E-03
  1.81585107212E-03  1.85253369707E-03  1.88995736020E-03  1.92813703147E-03
  1.96708798326E-03  2.00682579647E-03  2.04736636676E-03  2.08872591089E-03
  2.13092097324E-03  2.17396843239E-03  2.21788550790E-03  2.26268976719E-03
  2.30839913255E-03  2.35503188834E-03  2.40260668829E-03  2.45114256295E-03
  2.50065892732E-03  2.55117558860E-03  2.60271275414E-03  2.65529103948E-03
  2.70893147663E-03  2.76365552250E-03  2.81948506743E-03  2.87644244398E-03
  2.93455043586E-03  2.99383228704E-03  3.05431171105E-03  3.11601290047E-03
  3.17896053660E-03  3.24317979933E-03  3.30869637723E-03  3.37553647779E-03
  3.44372683795E-03  3.51329473476E-03  3.58426799631E-03  3.65667501285E-03
  3.73054474816E-03  3.80590675110E-03  3.88279116749E-03  3.96122875212E-03
  4.04125088106E-03  4.12288956424E-03  4.20617745822E-03  4.29114787927E-03
  4.37783481668E-03  4.46627294640E-03  4.55649764484E-03  4.64854500309E-03
  4.74245184133E-03  4.83825572354E-03  4.93599497254E-03  5.03570868535E-03
  5.13743674878E-03  5.24121985541E-03  5.34709951987E-03  5.45511809542E-03
  5.56531879096E-03  5.67774568821E-03  5.79244375944E-03  5.90945888541E-03
  6.02883787373E-03  6.15062847758E-03  6.27487941484E-03  6.40164038752E-03
  6.53096210172E-03  6.66289628784E-03  6.79749572131E-03  6.93481424371E-03
  7.07490678427E-03  7.21782938188E-03  7.36363920747E-03  7.51239458694E-03
  7.66415502441E-03  7.81898122607E-03  7.97693512448E-03  8.13807990330E-03
  8.30248002259E-03  8.47020124460E-03  8.64131066003E-03  8.81587671495E-03
  8.99396923811E-03  9.17565946887E-03  9.36102008578E-03  9.55012523553E-03
  9.74305056271E-03  9.93987324002E-03  1.01406719992E-02  1.03455271623E-02
  1.05545206743E-02  1.07677361352E-02  1.09852588342E-02  1.12071757832E-02
  1.14335757520E-02  1.16645493034E-02  1.19001888302E-02  1.21405885911E-02
  1.23858447494E-02  1.26360554107E-02  1.28913206626E-02  1.31517426147E-02
  1.34174254392E-02  1.36884754128E-02  1.39650009591E-02  1.42471126919E-02
  1.45349234598E-02  1.48285483909E-02  1.51281049390E-02  1.54337129309E-02
  1.57454946137E-02  1.60635747042E-02  1.63880804389E-02  1.67191416242E-02
  1.70568906891E-02  1.74014627377E-02  1.77529956035E-02  1.81116299041E-02
  1.84775090983E-02  1.88507795424E-02  1.92315905497E-02  1.96200944497E-02
  2.00164466490E-02  2.04208056939E-02  2.08333333333E-02  2.12541945839E-02
  2.16835577957E-02  2.21215947197E-02  2.25684805766E-02  2.30243941266E-02
  2.34895177412E-02  2.39640374762E-02  2.44481431457E-02  2.49420283984E-02
  2.54458907950E-02  2.59599318872E-02  2.64843572984E-02  2.70193768055E-02
  2.75652044237E-02  2.81220584912E-02  2.86901617570E-02  2.92697414701E-02
  2.98610294700E-02  3.04642622799E-02  3.10796812009E-02  3.17075324087E-02
  3.23480670523E-02  3.30015413541E-02  3.36682167124E-02  3.43483598063E-02
  3.50422427021E-02  3.57501429622E-02  3.64723437562E-02  3.72091339740E-02
  3.79608083415E-02  3.87276675385E-02  3.95100183189E-02  4.03081736334E-02
  4.11224527548E-02  4.19531814056E-02  4.28006918884E-02  4.36653232186E-02
  4.45474212604E-02  4.54473388645E-02  4.63654360103E-02  4.73020799486E-02
  4.82576453496E-02  4.92325144522E-02  5.02270772170E-02  5.12417314824E-02
  5.22768831237E-02  5.33329462152E-02  5.44103431963E-02  5.55095050402E-02
  5.66308714262E-02  5.77748909159E-02  5.89420211323E-02  6.01327289431E-02
  6.13474906472E-02  6.25867921656E-02  6.38511292353E-02  6.51410076080E-02
  6.64569432524E-02  6.77994625602E-02  6.91691025570E-02  7.05664111171E-02
  7.19919471826E-02  7.34462809868E-02  7.49299942827E-02  7.64436805754E-02
  7.79879453596E-02  7.95634063618E-02  8.11706937874E-02  8.28104505728E-02
  8.44833326426E-02  8.61900091719E-02  8.79311628541E-02  8.97074901739E-02
  9.15197016858E-02  9.33685222987E-02  9.52546915655E-02  9.71789639789E-02
  9.91421092737E-02  1.01144912734E-01  1.03188175508E-01  1.05272714928E-01
  1.07399364838E-01  1.09568975926E-01  1.11782416065E-01  1.14040570661E-01
  1.16344343006E-01  1.18694654639E-01  1.21092445717E-01  1.23538675387E-01
  1.26034322175E-01  1.28580384373E-01  1.31177880438E-01  1.33827849405E-01
  1.36531351296E-01  1.39289467547E-01  1.42103301444E-01  1.44973978555E-01
  1.47902647191E-01  1.50890478858E-01  1.53938668728E-01  1.57048436118E-01
  1.60221024977E-01  1.63457704382E-01  1.66759769048E-01  1.70128539845E-01
  1.73565364327E-01  1.77071617268E-01  1.80648701218E-01  1.84298047057E-01
  1.88021114572E-01  1.91819393039E-01  1.95694401822E-01  1.99647690974E-01
  2.03680841865E-01  2.07795467809E-01  2.11993214710E-01  2.16275761724E-01
  2.20644821926E-01  2.25102142999E-01  2.29649507930E-01  2.34288735727E-01
  2.39021682142E-01  2.43850240416E-01  2.48776342039E-01  2.53801957515E-01
  2.58929097158E-01  2.64159811892E-01  2.69496194074E-01  2.74940378326E-01
  2.80494542396E-01  2.86160908022E-01  2.91941741828E-01  2.97839356222E-01
  3.03856110331E-01  3.09994410935E-01  3.16256713437E-01  3.22645522840E-01
  3.29163394755E-01  3.35812936417E-01  3.42596807731E-01  3.49517722336E-01
  3.56578448691E-01  3.63781811179E-01  3.71130691242E-01  3.78628028530E-01
  3.86276822078E-01  3.94080131505E-01  4.02041078240E-01  4.10162846766E-01
  4.18448685900E-01  4.26901910087E-01  4.35525900731E-01  4.44324107542E-01
  4.53300049921E-01  4.62457318363E-01  4.71799575899E-01  4.81330559557E-01
  4.91054081856E-01  5.00974032335E-01  5.11094379106E-01  5.21419170445E-01
  5.31952536403E-01  5.42698690469E-01  5.53661931247E-01  5.64846644180E-01
  5.76257303302E-01  5.87898473029E-01  5.99774809984E-01  6.11891064860E-01
  6.24252084321E-01  6.36862812939E-01  6.49728295173E-01  6.62853677389E-01
  6.76244209914E-01  6.89905249139E-01  7.03842259664E-01  7.18060816476E-01
  7.32566607190E-01  7.47365434314E-01  7.62463217577E-01  7.77865996293E-01
  7.93579931779E-01  8.09611309819E-01  8.25966543179E-01  8.42652174168E-01
  8.59674877263E-01  8.77041461771E-01  8.94758874558E-01  9.12834202824E-01
  9.31274676944E-01  9.50087673351E-01  9.69280717496E-01  9.88861486851E-01
  1.00883781399E+00  1.02921768970E+00  1.05000926621E+00  1.07122086043E+00
  1.09286095727E+00  1.11493821307E+00  1.13746145902E+00  1.16043970472E+00
  1.18388214178E+00  1.20779814748E+00  1.23219728854E+00  1.25708932495E+00
  1.28248421384E+00  1.30839211353E+00  1.33482338750E+00  1.36178860863E+00
  1.38929856335E+00  1.41736425603E+00  1.44599691331E+00  1.47520798863E+00
  1.50500916682E+00  1.53541236874E+00  1.56642975608E+00  1.59807373621E+00
  1.63035696715E+00  1.66329236261E+00  1.69689309719E+00  1.73117261163E+00
  1.76614461820E+00  1.80182310617E+00  1.83822234741E+00  1.87535690209E+00
  1.91324162454E+00  1.95189166916E+00  1.99132249646E+00  2.03154987931E+00
  2.07258990921E+00  2.11445900270E+00  2.15717390799E+00  2.20075171160E+00
  2.24520984524E+00  2.29056609275E+00  2.33683859725E+00  2.38404586834E+00
  2.43220678956E+00  2.48134062593E+00  2.53146703164E+00  2.58260605791E+00
  2.63477816104E+00  2.68800421057E+00  2.74230549762E+00  2.79770374344E+00
  2.85422110805E+00  2.91188019917E+00  2.97070408119E+00  3.03071628445E+00
  3.09194081464E+00  3.15440216238E+00  3.21812531304E+00  3.28313575674E+00
  3.34945949851E+00  3.41712306875E+00  3.48615353377E+00  3.55657850669E+00
  3.62842615844E+00  3.70172522903E+00  3.77650503907E+00  3.85279550147E+00
  3.93062713345E+00  4.01003106869E+00  4.09103906983E+00  4.17368354114E+00
  4.25799754152E+00  4.34401479769E+00  4.43176971770E+00  4.52129740469E+00
  4.61263367092E+00  4.70581505213E+00  4.80087882210E+00  4.89786300761E+00
  4.99680640363E+00  5.09774858884E+00  5.20072994145E+00  5.30579165539E+00
  5.41297575673E+00  5.52232512055E+00  5.63388348804E+00  5.74769548406E+00
  5.86380663490E+00  5.98226338658E+00  6.10311312339E+00  6.22640418681E+00
  6.35218589494E+00  6.48050856211E+00  6.61142351912E+00  6.74498313369E+00
  6.88124083145E+00  7.02025111729E+00  7.16206959719E+00  7.30675300041E+00
  7.45435920227E+00  7.60494724719E+00  7.75857737242E+00  7.91531103204E+00
  8.07521092162E+00  8.23834100324E+00  8.40476653110E+00  8.57455407764E+00
  8.74777156014E+00  8.92448826790E+00  9.10477488997E+00  9.28870354339E+00
  9.47634780207E+00  9.66778272623E+00  9.86308489239E+00  1.00623324240E+01
  1.02656050228E+01  1.04729840004E+01  1.06845523113E+01  1.09003945856E+01
  1.11205971630E+01  1.13452481276E+01  1.15744373427E+01  1.18082564871E+01
  1.20467990915E+01  1.22901605762E+01  1.25384382890E+01  1.27917315443E+01
  1.30501416627E+01  1.33137720119E+01  1.35827280473E+01  1.38571173551E+01
  1.41370496946E+01  1.44226370424E+01  1.47139936374E+01  1.50112360260E+01
  1.53144831092E+01  1.56238561898E+01  1.59394790213E+01  1.62614778568E+01
  1.65899815003E+01  1.69251213577E+01  1.72670314892E+01  1.76158486636E+01
  1.79717124123E+01  1.83347650856E+01  1.87051519094E+01  1.90830210434E+01
  1.94685236402E+01  1.98618139061E+01  2.02630491623E+01  2.06723899084E+01
  2.10899998861E+01  2.15160461450E+01  2.19506991092E+01  2.23941326457E+01
  2.28465241339E+01  2.33080545364E+01  2.37789084714E+01  2.42592742869E+01
  2.47493441356E+01  2.52493140519E+01  2.57593840305E+01  2.62797581062E+01
  2.68106444355E+01  2.73522553801E+01  2.79048075916E+01  2.84685220981E+01
  2.90436243931E+01  2.96303445250E+01  3.02289171899E+01  3.08395818247E+01
  3.14625827034E+01  3.20981690347E+01  3.27465950616E+01  3.34081201632E+01
  3.40830089582E+01  3.47715314113E+01  3.54739629406E+01  3.61905845281E+01
  3.69216828319E+01  3.76675503012E+01  3.84284852928E+01  3.92047921909E+01
  3.99967815286E+01  4.08047701123E+01  4.16290811480E+01  4.24700443713E+01
  4.33279961786E+01  4.42032797621E+01  4.50962452468E+01  4.60072498310E+01
  4.69366579285E+01  4.78848413150E+01  4.88521792766E+01  4.98390587612E+01
  5.08458745338E+01  5.18730293343E+01  5.29209340381E+01  5.39900078211E+01
  5.50806783271E+01  5.61933818389E+01  5.73285634527E+01  5.84866772563E+01
  5.96681865106E+01
  </PP_R>
  <PP_RAB>
  5.14207517028E-08  5.24595197924E-08  5.35192723893E-08  5.46004334088E-08
  5.57034353298E-08  5.68287193675E-08  5.79767356507E-08  5.91479434013E-08
  6.03428111178E-08  6.15618167633E-08  6.28054479564E-08  6.40742021661E-08
  6.53685869111E-08  6.66891199623E-08  6.80363295508E-08  6.94107545782E-08
  7.08129448329E-08  7.22434612098E-08  7.37028759344E-08  7.51917727921E-08
  7.67107473615E-08  7.82604072526E-08  7.98413723502E-08  8.14542750612E-08
  8.30997605684E-08  8.47784870878E-08  8.64911261324E-08  8.82383627807E-08
  9.00208959506E-08  9.18394386792E-08  9.36947184079E-08  9.55874772731E-08
  9.75184724038E-08  9.94884762237E-08  1.01498276761E-07  1.03548677962E-07
  1.05640500014E-07  1.07774579676E-07  1.09951770606E-07  1.12172943711E-07
  1.14438987488E-07  1.16750808387E-07  1.19109331166E-07  1.21515499265E-07
  1.23970275184E-07  1.26474640866E-07  1.29029598091E-07  1.31636168876E-07
  1.34295395883E-07  1.37008342839E-07  1.39776094959E-07  1.42599759381E-07
  1.45480465608E-07  1.48419365961E-07  1.51417636040E-07  1.54476475191E-07
  1.57597106993E-07  1.60780779738E-07  1.64028766940E-07  1.67342367835E-07
  1.70722907908E-07  1.74171739421E-07  1.77690241952E-07  1.81279822949E-07
  1.84941918293E-07  1.88677992869E-07  1.92489541159E-07  1.96378087832E-07
  2.00345188358E-07  2.04392429630E-07  2.08521430600E-07  2.12733842923E-07
  2.17031351619E-07  2.21415675749E-07  2.25888569102E-07  2.30451820895E-07
  2.35107256489E-07  2.39856738120E-07  2.44702165644E-07  2.49645477298E-07
  2.54688650471E-07  2.59833702500E-07  2.65082691474E-07  2.70437717060E-07
  2.75900921338E-07  2.81474489664E-07  2.87160651539E-07  2.92961681503E-07
  2.98879900046E-07  3.04917674534E-07  3.11077420157E-07  3.17361600896E-07
  3.23772730507E-07  3.30313373528E-07  3.36986146302E-07  3.43793718027E-07
  3.50738811824E-07  3.57824205823E-07  3.65052734274E-07  3.72427288687E-07
  3.79950818981E-07  3.87626334669E-07  3.95456906059E-07  4.03445665484E-07
  4.11595808555E-07  4.19910595437E-07  4.28393352156E-07  4.37047471928E-07
  4.45876416517E-07  4.54883717616E-07  4.64072978269E-07  4.73447874300E-07
  4.83012155794E-07  4.92769648590E-07  5.02724255816E-07  5.12879959447E-07
  5.23240821901E-07  5.33810987660E-07  5.44594684932E-07  5.55596227339E-07
  5.66820015645E-07  5.78270539515E-07  5.89952379311E-07  6.01870207925E-07
  6.14028792647E-07  6.26432997074E-07  6.39087783052E-07  6.51998212664E-07
  6.65169450255E-07  6.78606764495E-07  6.92315530489E-07  7.06301231926E-07
  7.20569463274E-07  7.35125932014E-07  7.49976460929E-07  7.65126990429E-07
  7.80583580926E-07  7.96352415264E-07  8.12439801185E-07  8.28852173860E-07
  8.45596098457E-07  8.62678272767E-07  8.80105529889E-07  8.97884840957E-07
  9.16023317934E-07  9.34528216452E-07  9.53406938718E-07  9.72667036470E-07
  9.92316214007E-07  1.01236233126E-06  1.03281340694E-06  1.05367762176E-06
  1.07496332168E-06  1.09667902126E-06  1.11883340706E-06  1.14143534115E-06
  1.16449386460E-06  1.18801820112E-06  1.21201776076E-06  1.23650214366E-06
  1.26148114391E-06  1.28696475343E-06  1.31296316602E-06  1.33948678138E-06
  1.36654620931E-06  1.39415227395E-06  1.42231601808E-06  1.45104870759E-06
  1.48036183593E-06  1.51026712874E-06  1.54077654853E-06  1.57190229950E-06
  1.60365683234E-06  1.63605284929E-06  1.66910330920E-06  1.70282143269E-06
  1.73722070746E-06  1.77231489367E-06  1.80811802947E-06  1.84464443660E-06
  1.88190872609E-06  1.91992580416E-06  1.95871087816E-06  1.99827946262E-06
  2.03864738552E-06  2.07983079455E-06  2.12184616362E-06  2.16471029946E-06
  2.20844034828E-06  2.25305380268E-06  2.29856850865E-06  2.34500267267E-06
  2.39237486902E-06  2.44070404722E-06  2.49000953959E-06  2.54031106896E-06
  2.59162875664E-06  2.64398313038E-06  2.69739513262E-06  2.75188612888E-06
  2.80747791629E-06  2.86419273229E-06  2.92205326358E-06  2.98108265513E-06
  3.04130451950E-06  3.10274294622E-06  3.16542251149E-06  3.22936828797E-06
  3.29460585483E-06  3.36116130796E-06  3.42906127043E-06  3.49833290312E-06
  3.56900391562E-06  3.64110257728E-06  3.71465772852E-06  3.78969879237E-06
  3.86625578628E-06  3.94435933405E-06  4.02404067814E-06  4.10533169216E-06
  4.18826489360E-06  4.27287345684E-06  4.35919122643E-06  4.44725273063E-06
  4.53709319523E-06  4.62874855760E-06  4.72225548111E-06  4.81765136978E-06
  4.91497438323E-06  5.01426345197E-06  5.11555829295E-06  5.21889942545E-06
  5.32432818731E-06  5.43188675143E-06  5.54161814268E-06  5.65356625508E-06
  5.76777586937E-06  5.88429267090E-06  6.00316326796E-06  6.12443521038E-06
  6.24815700853E-06  6.37437815280E-06  6.50314913333E-06  6.63452146021E-06
  6.76854768415E-06  6.90528141740E-06  7.04477735529E-06  7.18709129806E-06
  7.33228017318E-06  7.48040205813E-06  7.63151620364E-06  7.78568305739E-06
  7.94296428817E-06  8.10342281058E-06  8.26712281015E-06  8.43412976909E-06
  8.60451049238E-06  8.77833313460E-06  8.95566722712E-06  9.13658370594E-06
  9.32115494007E-06  9.50945476046E-06  9.70155848954E-06  9.89754297138E-06
  1.00974866024E-05  1.03014693626E-05  1.05095728480E-05  1.07218803026E-05
  1.09384766524E-05  1.11594485386E-05  1.13848843530E-05  1.16148742730E-05
  1.18495102976E-05  1.20888862842E-05  1.23330979866E-05  1.25822430926E-05
  1.28364212636E-05  1.30957341743E-05  1.33602855533E-05  1.36301812246E-05
  1.39055291501E-05  1.41864394727E-05  1.44730245603E-05  1.47653990507E-05
  1.50636798975E-05  1.53679864172E-05  1.56784403363E-05  1.59951658406E-05
  1.63182896246E-05  1.66479409419E-05  1.69842516577E-05  1.73273563005E-05
  1.76773921169E-05  1.80344991258E-05  1.83988201749E-05  1.87705009973E-05
  1.91496902704E-05  1.95365396750E-05  1.99312039559E-05  2.03338409842E-05
  2.07446118199E-05  2.11636807770E-05  2.15912154886E-05  2.20273869743E-05
  2.24723697085E-05  2.29263416902E-05  2.33894845142E-05  2.38619834439E-05
  2.43440274852E-05  2.48358094621E-05  2.53375260938E-05  2.58493780739E-05
  2.63715701499E-05  2.69043112055E-05  2.74478143443E-05  2.80022969749E-05
  2.85679808976E-05  2.91450923936E-05  2.97338623152E-05  3.03345261781E-05
  3.09473242560E-05  3.15725016762E-05  3.22103085180E-05  3.28609999128E-05
  3.35248361456E-05  3.42020827600E-05  3.48930106634E-05  3.55978962364E-05
  3.63170214425E-05  3.70506739414E-05  3.77991472039E-05  3.85627406293E-05
  3.93417596651E-05  4.01365159294E-05  4.09473273352E-05  4.17745182178E-05
  4.26184194648E-05  4.34793686478E-05  4.43577101580E-05  4.52537953437E-05
  4.61679826510E-05  4.71006377669E-05  4.80521337659E-05  4.90228512591E-05
  5.00131785464E-05  5.10235117721E-05  5.20542550827E-05  5.31058207895E-05
  5.41786295327E-05  5.52731104501E-05  5.63897013486E-05  5.75288488795E-05
  5.86910087171E-05  5.98766457407E-05  6.10862342210E-05  6.23202580094E-05
  6.35792107320E-05  6.48635959867E-05  6.61739275446E-05  6.75107295558E-05
  6.88745367590E-05  7.02658946952E-05  7.16853599263E-05  7.31335002571E-05
  7.46108949631E-05  7.61181350220E-05  7.76558233498E-05  7.92245750423E-05
  8.08250176212E-05  8.24577912848E-05  8.41235491644E-05  8.58229575854E-05
  8.75566963337E-05  8.93254589279E-05  9.11299528968E-05  9.29709000618E-05
  9.48490368266E-05  9.67651144707E-05  9.87198994509E-05  1.00714173707E-04
  1.02748734976E-04  1.04824397108E-04  1.06941990397E-04  1.09102361908E-04
  1.11306375819E-04  1.13554913764E-04  1.15848875189E-04  1.18189177708E-04
  1.20576757475E-04  1.23012569552E-04  1.25497588297E-04  1.28032807750E-04
  1.30619242034E-04  1.33257925757E-04  1.35949914426E-04  1.38696284874E-04
  1.41498135685E-04  1.44356587638E-04  1.47272784149E-04  1.50247891739E-04
  1.53283100488E-04  1.56379624521E-04  1.59538702490E-04  1.62761598066E-04
  1.66049600452E-04  1.69404024892E-04  1.72826213201E-04  1.76317534299E-04
  1.79879384762E-04  1.83513189377E-04  1.87220401716E-04  1.91002504711E-04
  1.94861011254E-04  1.98797464800E-04  2.02813439983E-04  2.06910543246E-04
  2.11090413486E-04  2.15354722705E-04  2.19705176685E-04  2.24143515664E-04
  2.28671515039E-04  2.33290986069E-04  2.38003776604E-04  2.42811771822E-04
  2.47716894988E-04  2.52721108214E-04  2.57826413253E-04  2.63034852295E-04
  2.68348508785E-04  2.73769508256E-04  2.79300019182E-04  2.84942253838E-04
  2.90698469196E-04  2.96570967818E-04  3.02562098781E-04  3.08674258617E-04
  3.14909892273E-04  3.21271494085E-04  3.27761608778E-04  3.34382832484E-04
  3.41137813782E-04  3.48029254755E-04  3.55059912069E-04  3.62232598083E-04
  3.69550181965E-04  3.77015590848E-04  3.84631810994E-04  3.92401888993E-04
  4.00328932980E-04  4.08416113878E-04  4.16666666667E-04  4.25083891678E-04
  4.33671155913E-04  4.42431894394E-04  4.51369611531E-04  4.60487882532E-04
  4.69790354825E-04  4.79280749524E-04  4.88962862913E-04  4.98840567967E-04
  5.08917815900E-04  5.19198637745E-04  5.29687145967E-04  5.40387536111E-04
  5.51304088474E-04  5.62441169823E-04  5.73803235140E-04  5.85394829401E-04
  5.97220589400E-04  6.09285245598E-04  6.21593624017E-04  6.34150648174E-04
  6.46961341046E-04  6.60030827081E-04  6.73364334247E-04  6.86967196125E-04
  7.00844854041E-04  7.15002859244E-04  7.29446875123E-04  7.44182679479E-04
  7.59216166829E-04  7.74553350769E-04  7.90200366377E-04  8.06163472668E-04
  8.22449055096E-04  8.39063628113E-04  8.56013837768E-04  8.73306464373E-04
  8.90948425207E-04  9.08946777291E-04  9.27308720205E-04  9.46041598972E-04
  9.65152906992E-04  9.84650289044E-04  1.00454154434E-03  1.02483462965E-03
  1.04553766247E-03  1.06665892430E-03  1.08820686393E-03  1.11019010080E-03
  1.13261742852E-03  1.15549781832E-03  1.17884042265E-03  1.20265457886E-03
  1.22694981294E-03  1.25173584331E-03  1.27702258471E-03  1.30282015216E-03
  1.32913886505E-03  1.35598925120E-03  1.38338205114E-03  1.41132822234E-03
  1.43983894365E-03  1.46892561974E-03  1.49859988565E-03  1.52887361151E-03
  1.55975890719E-03  1.59126812724E-03  1.62341387575E-03  1.65620901146E-03
  1.68966665285E-03  1.72380018344E-03  1.75862325708E-03  1.79414980348E-03
  1.83039403372E-03  1.86737044597E-03  1.90509383131E-03  1.94357927958E-03
  1.98284218547E-03  2.02289825468E-03  2.06376351016E-03  2.10545429857E-03
  2.14798729676E-03  2.19137951852E-03  2.23564832130E-03  2.28081141322E-03
  2.32688686012E-03  2.37389309278E-03  2.42184891433E-03  2.47077350775E-03
  2.52068644351E-03  2.57160768745E-03  2.62355760876E-03  2.67655698810E-03
  2.73062702591E-03  2.78578935095E-03  2.84206602887E-03  2.89947957110E-03
  2.95805294382E-03  3.01780957715E-03  3.07877337455E-03  3.14096872236E-03
  3.20442049953E-03  3.26915408763E-03  3.33519538096E-03  3.40257079690E-03
  3.47130728654E-03  3.54143234537E-03  3.61297402436E-03  3.68596094113E-03
  3.76042229143E-03  3.83638786078E-03  3.91388803643E-03  3.99295381949E-03
  4.07361683730E-03  4.15590935617E-03  4.23986429420E-03  4.32551523447E-03
  4.41289643851E-03  4.50204285997E-03  4.59299015860E-03  4.68577471453E-03
  4.78043364283E-03  4.87700480833E-03  4.97552684077E-03  5.07603915029E-03
  5.17858194316E-03  5.28319623785E-03  5.38992388148E-03  5.49880756652E-03
  5.60989084792E-03  5.72321816045E-03  5.83883483656E-03  5.95678712445E-03
  6.07712220662E-03  6.19988821870E-03  6.32513426873E-03  6.45291045681E-03
  6.58326789511E-03  6.71625872834E-03  6.85193615462E-03  6.99035444672E-03
  7.13156897381E-03  7.27563622357E-03  7.42261382484E-03  7.57256057060E-03
  7.72553644156E-03  7.88160263011E-03  8.04082156479E-03  8.20325693532E-03
  8.36897371799E-03  8.53803820175E-03  8.71051801462E-03  8.88648215084E-03
  9.06600099842E-03  9.24914636727E-03  9.43599151799E-03  9.62661119113E-03
  9.82108163711E-03  1.00194806467E-02  1.02218875821E-02  1.04283834089E-02
  1.06390507281E-02  1.08539738094E-02  1.10732386249E-02  1.12969328836E-02
  1.15251460660E-02  1.17579694606E-02  1.19954961997E-02  1.22378212972E-02
  1.24850416864E-02  1.27372562588E-02  1.29945659035E-02  1.32570735478E-02
  1.35248841983E-02  1.37981049828E-02  1.40768451933E-02  1.43612163295E-02
  1.46513321438E-02  1.49473086863E-02  1.52492643515E-02  1.55573199259E-02
  1.58715986356E-02  1.61922261964E-02  1.65193308636E-02  1.68530434834E-02