<PP_INFO>
Generated using Vanderbilt code, version   7  3  4                              
Author: P. Giannozzi, using CAMPOS data   Generation date:    4    6 2003
rinner=0.9, rpcor=1.2
    1        The Pseudo was generated with a Scalar-Relativistic Calculation
  1.50000000000E+00    Local Potential cutoff radius
nl pn  l   occ               Rcut            Rcut US             E pseu
3S  3  0  2.00     10.00000000000      1.50000000000     -1.52084169822
3P  3  1  5.00     10.00000000000      1.50000000000     -0.63173986866
</PP_INFO>


<PP_HEADER>
   0                   Version Number
  Cl                   Element
   US                  Ultrasoft pseudopotential
    T                  Nonlinear Core Correction
 SLA  PW   PBE  PBE    PBE  Exchange-Correlation functional
    7.00000000000      Z valence
  -31.88004128905      Total energy
  0.0000000  0.0000000 Suggested cutoff for wfc and rho
    1                  Max angular momentum component
  909                  Number of points in mesh
    2    4             Number of Wavefunctions, Number of Projectors
 Wavefunctions         nl  l   occ
                       3S  0  2.00
                       3P  1  5.00
</PP_HEADER>


<PP_MESH>
  <PP_R>
  0.00000000000E+00  9.01493505081E-07  1.81813780785E-06  2.75018753762E-06
  3.69790160308E-06  4.66154326424E-06  5.64138020553E-06  6.63768461018E-06
  7.65073323582E-06  8.68080749136E-06  9.72819351516E-06  1.07931822545E-05
  1.18760695465E-05  1.29771562001E-05  1.40967480797E-05  1.52351561904E-05
  1.63926967639E-05  1.75696913467E-05  1.87664668894E-05  1.99833558372E-05
  2.12206962227E-05  2.24788317595E-05  2.37581119378E-05  2.50588921215E-05
  2.63815336467E-05  2.77264039223E-05  2.90938765321E-05  3.04843313384E-05
  3.18981545876E-05  3.33357390174E-05  3.47974839661E-05  3.62837954833E-05
  3.77950864429E-05  3.93317766577E-05  4.08942929960E-05  4.24830695001E-05
  4.40985475070E-05  4.57411757711E-05  4.74114105884E-05  4.91097159239E-05
  5.08365635400E-05  5.25924331276E-05  5.43778124397E-05  5.61931974263E-05
  5.80390923728E-05  5.99160100396E-05  6.18244718048E-05  6.37650078090E-05
  6.57381571024E-05  6.77444677948E-05  6.97844972074E-05  7.18588120284E-05
  7.39679884696E-05  7.61126124269E-05  7.82932796430E-05  8.05105958728E-05
  8.27651770517E-05  8.50576494668E-05  8.73886499307E-05  8.97588259585E-05
  9.21688359478E-05  9.46193493611E-05  9.71110469125E-05  9.96446207561E-05
  1.02220774679E-04  1.04840224296E-04  1.07503697248E-04  1.10211933407E-04
  1.12965685077E-04  1.15765717208E-04  1.18612807604E-04  1.21507747141E-04
  1.24451339989E-04  1.27444403831E-04  1.30487770093E-04  1.33582284174E-04
  1.36728805680E-04  1.39928208667E-04  1.43181381877E-04  1.46489228992E-04
  1.49852668877E-04  1.53272635845E-04  1.56750079907E-04  1.60285967043E-04
  1.63881279466E-04  1.67537015898E-04  1.71254191844E-04  1.75033839878E-04
  1.78877009925E-04  1.82784769557E-04  1.86758204289E-04  1.90798417878E-04
  1.94906532631E-04  1.99083689718E-04  2.03331049487E-04  2.07649791787E-04
  2.12041116298E-04  2.16506242859E-04  2.21046411812E-04  2.25662884345E-04
  2.30356942840E-04  2.35129891233E-04  2.39983055374E-04  2.44917783395E-04
  2.49935446085E-04  2.55037437272E-04  2.60225174209E-04  2.65500097967E-04
  2.70863673836E-04  2.76317391733E-04  2.81862766615E-04  2.87501338899E-04
  2.93234674892E-04  2.99064367224E-04  3.04992035292E-04  3.11019325707E-04
  3.17147912757E-04  3.23379498865E-04  3.29715815068E-04  3.36158621495E-04
  3.42709707855E-04  3.49370893937E-04  3.56144030113E-04  3.63030997853E-04
  3.70033710248E-04  3.77154112542E-04  3.84394182669E-04  3.91755931806E-04
  3.99241404932E-04  4.06852681392E-04  4.14591875480E-04  4.22461137019E-04
  4.30462651969E-04  4.38598643022E-04  4.46871370228E-04  4.55283131622E-04
  4.63836263856E-04  4.72533142857E-04  4.81376184479E-04  4.90367845180E-04
  4.99510622702E-04  5.08807056764E-04  5.18259729768E-04  5.27871267517E-04
  5.37644339946E-04  5.47581661858E-04  5.57685993686E-04  5.67960142253E-04
  5.78406961555E-04  5.89029353554E-04  5.99830268982E-04  6.10812708163E-04
  6.21979721845E-04  6.33334412049E-04  6.44879932928E-04  6.56619491646E-04
  6.68556349266E-04  6.80693821658E-04  6.93035280422E-04  7.05584153819E-04
  7.18343927729E-04  7.31318146614E-04  7.44510414509E-04  7.57924396016E-04
  7.71563817328E-04  7.85432467261E-04  7.99534198307E-04  8.13872927704E-04
  8.28452638525E-04  8.43277380782E-04  8.58351272556E-04  8.73678501135E-04
  8.89263324182E-04  9.05110070913E-04  9.21223143306E-04  9.37607017317E-04
  9.54266244128E-04  9.71205451408E-04  9.88429344603E-04  1.00594270824E-03
  1.02375040725E-03  1.04185738833E-03  1.06026868132E-03  1.07898940058E-03
  1.09802474643E-03  1.11738000660E-03  1.13706055766E-03  1.15707186657E-03
  1.17741949214E-03  1.19810908664E-03  1.21914639729E-03  1.24053726794E-03
  1.26228764062E-03  1.28440355726E-03  1.30689116130E-03  1.32975669944E-03
  1.35300652337E-03  1.37664709152E-03  1.40068497087E-03  1.42512683876E-03
  1.44997948476E-03  1.47524981254E-03  1.50094484180E-03  1.52707171021E-03
  1.55363767540E-03  1.58065011697E-03  1.60811653857E-03  1.63604456992E-03
  1.66444196900E-03  1.69331662414E-03  1.72267655628E-03  1.75252992114E-03
  1.78288501151E-03  1.81375025956E-03  1.84513423917E-03  1.87704566830E-03
  1.90949341146E-03  1.94248648211E-03  1.97603404520E-03  2.01014541972E-03
  2.04483008128E-03  2.08009766471E-03  2.11595796681E-03  2.15242094898E-03
  2.18949674009E-03  2.22719563919E-03  2.26552811844E-03  2.30450482600E-03
  2.34413658899E-03  2.38443441648E-03  2.42540950257E-03  2.46707322950E-03
  2.50943717079E-03  2.55251309447E-03  2.59631296635E-03  2.64084895336E-03
  2.68613342687E-03  2.73217896621E-03  2.77899836210E-03  2.82660462022E-03
  2.87501096484E-03  2.92423084249E-03  2.97427792566E-03  3.02516611664E-03
  3.07690955137E-03  3.12952260337E-03  3.18301988770E-03  3.23741626506E-03
  3.29272684591E-03  3.34896699466E-03  3.40615233393E-03  3.46429874891E-03
  3.52342239174E-03  3.58353968606E-03  3.64466733148E-03  3.70682230830E-03
  3.77002188220E-03  3.83428360903E-03  3.89962533966E-03  3.96606522500E-03
  4.03362172101E-03  4.10231359382E-03  4.17215992493E-03  4.24318011655E-03
  4.31539389699E-03  4.38882132607E-03  4.46348280079E-03  4.53939906092E-03
  4.61659119480E-03  4.69508064518E-03  4.77488921520E-03  4.85603907441E-03
  4.93855276497E-03  5.02245320787E-03  5.10776370934E-03  5.19450796728E-03
  5.28271007787E-03  5.37239454228E-03  5.46358627343E-03  5.55631060294E-03
  5.65059328817E-03  5.74646051935E-03  5.84393892690E-03  5.94305558876E-03
  6.04383803800E-03  6.14631427037E-03  6.25051275216E-03  6.35646242806E-03
  6.46419272922E-03  6.57373358142E-03  6.68511541336E-03  6.79836916517E-03
  6.91352629696E-03  7.03061879754E-03  7.14967919338E-03  7.27074055756E-03
  7.39383651903E-03  7.51900127190E-03  7.64626958495E-03  7.77567681132E-03
  7.90725889830E-03  8.04105239730E-03  8.17709447404E-03  8.31542291888E-03
  8.45607615726E-03  8.59909326044E-03  8.74451395630E-03  8.89237864042E-03
  9.04272838728E-03  9.19560496165E-03  9.35105083024E-03  9.50910917346E-03
  9.66982389741E-03  9.83323964612E-03  9.99940181388E-03  1.01683565579E-02
  1.03401508112E-02  1.05148322955E-02  1.06924495345E-02  1.08730518676E-02
  1.10566894631E-02  1.12434133327E-02  1.14332753453E-02  1.16263282417E-02
  1.18226256488E-02  1.20222220950E-02  1.22251730250E-02  1.24315348154E-02
  1.26413647902E-02  1.28547212369E-02  1.30716634225E-02  1.32922516102E-02
  1.35165470758E-02  1.37446121252E-02  1.39765101111E-02  1.42123054512E-02
  1.44520636457E-02  1.46958512955E-02  1.49437361212E-02  1.51957869812E-02
  1.54520738912E-02  1.57126680437E-02  1.59776418276E-02  1.62470688484E-02
  1.65210239488E-02  1.67995832291E-02  1.70828240687E-02  1.73708251474E-02
  1.76636664674E-02  1.79614293754E-02  1.82641965852E-02  1.85720522008E-02
  1.88850817395E-02  1.92033721561E-02  1.95270118666E-02  1.98560907730E-02
  2.01907002882E-02  2.05309333615E-02  2.08768845042E-02  2.12286498161E-02
  2.15863270121E-02  2.19500154492E-02  2.23198161543E-02  2.26958318523E-02
  2.30781669943E-02  2.34669277870E-02  2.38622222221E-02  2.42641601060E-02
  2.46728530908E-02  2.50884147049E-02  2.55109603848E-02  2.59406075070E-02
  2.63774754207E-02  2.68216854809E-02  2.72733610821E-02  2.77326276927E-02
  2.81996128897E-02  2.86744463942E-02  2.91572601074E-02  2.96481881474E-02
  3.01473668863E-02  3.06549349880E-02  3.11710334469E-02  3.16958056269E-02
  3.22293973017E-02  3.27719566944E-02  3.33236345195E-02  3.38845840244E-02
  3.44549610320E-02  3.50349239841E-02  3.56246339851E-02  3.62242548473E-02
  3.68339531357E-02  3.74538982151E-02  3.80842622962E-02  3.87252204844E-02
  3.93769508277E-02  4.00396343664E-02  4.07134551836E-02  4.13986004561E-02
  4.20952605064E-02  4.28036288556E-02  4.35239022774E-02  4.42562808523E-02
  4.50009680235E-02  4.57581706533E-02  4.65280990807E-02  4.73109671796E-02
  4.81069924184E-02  4.89163959204E-02  4.97394025250E-02  5.05762408506E-02
  5.14271433575E-02  5.22923464131E-02  5.31720903571E-02  5.40666195685E-02
  5.49761825333E-02  5.59010319138E-02  5.68414246186E-02  5.77976218739E-02
  5.87698892961E-02  5.97584969659E-02  6.07637195028E-02  6.17858361418E-02
  6.28251308107E-02  6.38818922092E-02  6.49564138888E-02  6.60489943349E-02
  6.71599370488E-02  6.82895506331E-02  6.94381488765E-02  7.06060508414E-02
  7.17935809526E-02  7.30010690872E-02  7.42288506664E-02  7.54772667484E-02
  7.67466641235E-02  7.80373954103E-02  7.93498191536E-02  8.06842999238E-02
  8.20412084189E-02  8.34209215663E-02  8.48238226288E-02  8.62503013100E-02
  8.77007538633E-02  8.91755832013E-02  9.06751990085E-02  9.22000178544E-02
  9.37504633096E-02  9.53269660633E-02  9.69299640432E-02  9.85599025368E-02
  1.00217234315E-01  1.01902419759E-01  1.03615926986E-01  1.05358231982E-01
  1.07129818731E-01  1.08931179352E-01  1.10762814235E-01  1.12625232179E-01
  1.14518950535E-01  1.16444495346E-01  1.18402401500E-01  1.20393212872E-01
  1.22417482477E-01  1.24475772626E-01  1.26568655080E-01  1.28696711207E-01
  1.30860532149E-01  1.33060718980E-01  1.35297882878E-01  1.37572645292E-01
  1.39885638114E-01  1.42237503858E-01  1.44628895835E-01  1.47060478335E-01
  1.49532926814E-01  1.52046928079E-01  1.54603180480E-01  1.57202394104E-01
  1.59845290970E-01  1.62532605234E-01  1.65265083390E-01  1.68043484476E-01
  1.70868580289E-01  1.73741155596E-01  1.76662008352E-01  1.79631949924E-01
  1.82651805316E-01  1.85722413396E-01  1.88844627129E-01  1.92019313817E-01
  1.95247355339E-01  1.98529648394E-01  2.01867104750E-01  2.05260651500E-01
  2.08711231318E-01  2.12219802720E-01  2.15787340333E-01  2.19414835161E-01
  2.23103294866E-01  2.26853744043E-01  2.30667224508E-01  2.34544795586E-01
  2.38487534405E-01  2.42496536194E-01  2.46572914593E-01  2.50717801953E-01
  2.54932349660E-01  2.59217728448E-01  2.63575128728E-01  2.68005760916E-01
  2.72510855773E-01  2.77091664743E-01  2.81749460301E-01  2.86485536311E-01
  2.91301208378E-01  2.96197814222E-01  3.01176714041E-01  3.06239290895E-01
  3.11386951088E-01  3.16621124560E-01  3.21943265280E-01  3.27354851656E-01
  3.32857386940E-01  3.38452399649E-01  3.44141443991E-01  3.49926100292E-01
  3.55807975438E-01  3.61788703321E-01  3.67869945292E-01  3.74053390626E-01
  3.80340756984E-01  3.86733790899E-01  3.93234268254E-01  3.99843994779E-01
  4.06564806551E-01  4.13398570507E-01  4.20347184958E-01  4.27412580119E-01
  4.34596718645E-01  4.41901596177E-01  4.49329241894E-01  4.56881719079E-01
  4.64561125691E-01  4.72369594947E-01  4.80309295918E-01  4.88382434126E-01
  4.96591252162E-01  5.04938030307E-01  5.13425087162E-01  5.22054780299E-01
  5.30829506910E-01  5.39751704475E-01  5.48823851441E-01  5.58048467905E-01
  5.67428116322E-01  5.76965402209E-01  5.86662974873E-01  5.96523528148E-01
  6.06549801139E-01  6.16744578986E-01  6.27110693638E-01  6.37651024637E-01
  6.48368499922E-01  6.59266096637E-01  6.70346841963E-01  6.81613813956E-01
  6.93070142403E-01  7.04719009691E-01  7.16563651690E-01  7.28607358657E-01
  7.40853476142E-01  7.53305405923E-01  7.65966606951E-01  7.78840596305E-01
  7.91930950179E-01  8.05241304864E-01  8.18775357768E-01  8.32536868436E-01
  8.46529659599E-01  8.60757618234E-01  8.75224696642E-01  8.89934913549E-01
  9.04892355222E-01  9.20101176601E-01  9.35565602458E-01  9.51289928564E-01
  9.67278522890E-01  9.83535826815E-01  1.00006635636E+00  1.01687470345E+00
  1.03396553717E+00  1.05134360509E+00  1.06901373456E+00  1.08698083406E+00
  1.10524989458E+00  1.12382599096E+00  1.14271428335E+00  1.16192001863E+00
  1.18144853184E+00  1.20130524769E+00  1.22149568207E+00  1.24202544356E+00
  1.26290023501E+00  1.28412585510E+00  1.30570819997E+00  1.32765326486E+00
  1.34996714576E+00  1.37265604112E+00  1.39572625354E+00  1.41918419158E+00
  1.44303637148E+00  1.46728941899E+00  1.49195007123E+00  1.51702517854E+00
  1.54252170639E+00  1.56844673731E+00  1.59480747286E+00  1.62161123565E+00
  1.64886547133E+00  1.67657775069E+00  1.70475577178E+00  1.73340736201E+00
  1.76254048032E+00  1.79216321944E+00  1.82228380811E+00  1.85291061334E+00
  1.88405214278E+00  1.91571704705E+00  1.94791412216E+00  1.98065231195E+00
  2.01394071058E+00  2.04778856504E+00  2.08220527772E+00  2.11720040904E+00
  2.15278368010E+00  2.18896497537E+00  2.22575434545E+00  2.26316200983E+00
  2.30119835978E+00  2.33987396119E+00  2.37919955754E+00  2.41918607285E+00
  2.45984461475E+00  2.50118647754E+00  2.54322314533E+00  2.58596629525E+00
  2.62942780067E+00  2.67361973451E+00  2.71855437258E+00  2.76424419704E+00
  2.81070189977E+00  2.85794038601E+00  2.90597277786E+00  2.95481241795E+00
  3.00447287317E+00  3.05496793840E+00  3.10631164039E+00  3.15851824159E+00
  3.21160224419E+00  3.26557839407E+00  3.32046168495E+00  3.37626736256E+00
  3.43301092882E+00  3.49070814620E+00  3.54937504208E+00  3.60902791320E+00
  3.66968333017E+00  3.73135814213E+00  3.79406948135E+00  3.85783476805E+00
  3.92267171523E+00  3.98859833357E+00  4.05563293644E+00  4.12379414498E+00
  4.19310089332E+00  4.26357243377E+00  4.33522834221E+00  4.40808852353E+00
  4.48217321712E+00  4.55750300255E+00  4.63409880524E+00  4.71198190229E+00
  4.79117392841E+00  4.87169688188E+00  4.95357313072E+00  5.03682541884E+00
  5.12147687242E+00  5.20755100629E+00  5.29507173050E+00  5.38406335692E+00
  5.47455060601E+00  5.56655861370E+00  5.66011293837E+00  5.75523956793E+00
  5.85196492706E+00  5.95031588452E+00  6.05031976067E+00  6.15200433501E+00
  6.25539785389E+00  6.36052903842E+00  6.46742709236E+00  6.57612171032E+00
  6.68664308594E+00  6.79902192031E+00  6.91328943050E+00  7.02947735822E+00
  7.14761797863E+00  7.26774410935E+00  7.38988911951E+00  7.51408693906E+00
  7.64037206821E+00  7.76877958695E+00  7.89934516488E+00  8.03210507105E+00
  8.16709618406E+00  8.30435600232E+00  8.44392265444E+00  8.58583490982E+00
  8.73013218945E+00  8.87685457683E+00  9.02604282914E+00  9.17773838850E+00
  9.33198339355E+00  9.48882069111E+00  9.64829384811E+00  9.81044716368E+00
  9.97532568145E+00  1.01429752021E+01  1.03134422959E+01  1.04867743160E+01
  1.06630194114E+01  1.08422265400E+01  1.10244454828E+01  1.12097268575E+01
  1.13981221321E+01  1.15896836399E+01  1.17844645937E+01  1.19825191006E+01
  1.21839021769E+01  1.23886697638E+01  1.25968787424E+01  1.28085869499E+01
  1.30238531954E+01  1.32427372766E+01  1.34652999960E+01  1.36916031780E+01
  1.39217096860E+01  1.41556834400E+01  1.43935894343E+01  1.46354937552E+01
  1.48814636001E+01  1.51315672955E+01  1.53858743162E+01  1.56444553048E+01
  1.59073820908E+01  1.61747277113E+01  1.64465664306E+01  1.67229737613E+01
  1.70040264849E+01  1.72898026734E+01  1.75803817109E+01  1.78758443157E+01
  1.81762725627E+01  1.84817499061E+01  1.87923612026E+01  1.91081927352E+01
  1.94293322369E+01  1.97558689152E+01  2.00878934767E+01  2.04254981528E+01
  2.07687767245E+01  2.11178245493E+01  2.14727385873E+01  2.18336174277E+01
  2.22005613173E+01  2.25736721870E+01  2.29530536813E+01  2.33388111863E+01
  2.37310518595E+01  2.41298846589E+01  2.45354203742E+01  2.49477716566E+01
  2.53670530510E+01  2.57933810270E+01  2.62268740118E+01  2.66676524229E+01
  2.71158387017E+01  2.75715573471E+01  2.80349349506E+01  2.85061002312E+01
  2.89851840713E+01  2.94723195526E+01  2.99676419937E+01  3.04712889874E+01
  3.09834004389E+01  3.15041186047E+01  3.20335881320E+01  3.25719560991E+01
  3.31193720561E+01  3.36759880666E+01  3.42419587496E+01  3.48174413229E+01
  3.54025956465E+01  3.59975842669E+01  3.66025724627E+01  3.72177282900E+01
  3.78432226294E+01  3.84792292333E+01  3.91259247743E+01  3.97834888942E+01
  4.04521042539E+01  4.11319565843E+01  4.18232347376E+01  4.25261307399E+01
  4.32408398447E+01  4.39675605868E+01  4.47064948378E+01  4.54578478620E+01
  4.62218283733E+01  4.69986485935E+01  4.77885243109E+01  4.85916749407E+01
  4.94083235852E+01  5.02386970967E+01  5.10830261398E+01  5.19415452557E+01
  5.28144929276E+01  5.37021116464E+01  5.46046479786E+01  5.55223526347E+01
  5.64554805384E+01  5.74042908979E+01  5.83690472778E+01  5.93500176722E+01
  6.03474745791E+01  6.13616950764E+01  6.23929608984E+01  6.34415585145E+01
  6.45077792086E+01  6.55919191600E+01  6.66942795255E+01  6.78151665236E+01
  6.89548915189E+01  7.01137711090E+01  7.12921272124E+01  7.24902871578E+01
  7.37085837750E+01  7.49473554877E+01  7.62069464071E+01  7.74877064277E+01
  7.87899913243E+01  8.01141628511E+01  8.14605888421E+01  8.28296433131E+01
  8.42217065659E+01  8.56371652936E+01  8.70764126884E+01  8.85398485504E+01
  9.00278793990E+01  9.15409185856E+01  9.30793864087E+01  9.46437102303E+01
  9.62343245949E+01  9.78516713501E+01  9.94961997691E+01  1.01168366676E+02
  1.02868636573E+02  1.04597481767E+02  1.06355382504E+02  1.08142827103E+02
  1.09960312085E+02  1.11808342321E+02  1.13687431164E+02  1.15598100594E+02
  1.17540881366E+02  1.19516313154E+02  1.21524944701E+02  1.23567333973E+02
  1.25644048314E+02  1.27755664603E+02  1.29902769412E+02  1.32085959174E+02
  1.34305840345E+02  1.36563029572E+02  1.38858153867E+02  1.41191850780E+02
  1.43564768573E+02  1.45977566407E+02  1.48430914519E+02  1.50925494409E+02
  1.53461999033E+02  1.56041132992E+02  1.58663612729E+02  1.61330166726E+02
  1.64041535711E+02  1.66798472858E+02  1.69601744003E+02  1.72452127848E+02
  1.75350416186E+02  1.78297414115E+02  1.81293940265E+02  1.84340827024E+02
  1.87438920768E+02  1.90589082099E+02  1.93792186082E+02  1.97049122490E+02
  2.00360796046E+02
  </PP_R>
  <PP_RAB>
  8.94001927014E-07  9.09026818766E-07  9.24304223812E-07  9.39838385975E-07
  9.55633620399E-07  9.71694314752E-07  9.88024930440E-07  1.00463000385E-06
  1.02151414761E-06  1.03868205187E-06  1.05613848560E-06  1.07388829792E-06
  1.09193641946E-06  1.11028786368E-06  1.12894772834E-06  1.14792119685E-06
  1.16721353975E-06  1.18683011613E-06  1.20677637517E-06  1.22705785763E-06
  1.24768019739E-06  1.26864912301E-06  1.28997045931E-06  1.31165012904E-06
  1.33369415446E-06  1.35610865905E-06  1.37889986922E-06  1.40207411599E-06
  1.42563783681E-06  1.44959757730E-06  1.47395999312E-06  1.49873185174E-06
  1.52392003440E-06  1.54953153798E-06  1.57557347695E-06  1.60205308535E-06
  1.62897771880E-06  1.65635485653E-06  1.68419210349E-06  1.71249719241E-06
  1.74127798601E-06  1.77054247914E-06  1.80029880101E-06  1.83055521745E-06
  1.86132013323E-06  1.89260209434E-06  1.92440979043E-06  1.95675205716E-06
  1.98963787872E-06  2.02307639026E-06  2.05707688047E-06  2.09164879415E-06
  2.12680173484E-06  2.16254546746E-06  2.19888992106E-06  2.23584519156E-06
  2.27342154454E-06  2.31162941813E-06  2.35047942586E-06  2.38998235966E-06
  2.43014919281E-06  2.47099108303E-06  2.51251937556E-06  2.55474560628E-06
  2.59768150499E-06  2.64133899861E-06  2.68573021448E-06  2.73086748379E-06
  2.77676334497E-06  2.82343054715E-06  2.87088205374E-06  2.91913104604E-06
  2.96819092684E-06  3.01807532420E-06  3.06879809523E-06  3.12037332991E-06
  3.17281535502E-06  3.22613873813E-06  3.28035829164E-06  3.33548907687E-06
  3.39154640830E-06  3.44854585776E-06  3.50650325879E-06  3.56543471106E-06
  3.62535658479E-06  3.68628552532E-06  3.74823845776E-06  3.81123259164E-06
  3.87528542576E-06  3.94041475296E-06  4.00663866516E-06  4.07397555831E-06
  4.14244413752E-06  4.21206342231E-06  4.28285275179E-06  4.35483179013E-06
  4.42802053197E-06  4.50243930799E-06  4.57810879054E-06  4.65504999942E-06
  4.73328430768E-06  4.81283344756E-06  4.89371951658E-06  4.97596498359E-06
  5.05959269510E-06  5.14462588155E-06  5.23108816383E-06  5.31900355979E-06
  5.40839649094E-06  5.49929178923E-06  5.59171470393E-06  5.68569090867E-06
  5.78124650855E-06  5.87840804742E-06  5.97720251521E-06  6.07765735547E-06
  6.17980047296E-06  6.28366024143E-06  6.38926551148E-06  6.49664561859E-06
  6.60583039126E-06  6.71685015929E-06  6.82973576222E-06  6.94451855789E-06
  7.06123043115E-06  7.17990380271E-06  7.30057163816E-06  7.42326745712E-06
  7.54802534255E-06  7.67487995022E-06  7.80386651834E-06  7.93502087734E-06
  8.06837945982E-06  8.20397931071E-06  8.34185809748E-06  8.48205412071E-06
  8.62460632461E-06  8.76955430796E-06  8.91693833500E-06  9.06679934669E-06
  9.21917897205E-06  9.37411953975E-06  9.53166408981E-06  9.69185638564E-06
  9.85474092611E-06  1.00203629580E-05  1.01887684884E-05  1.03600042979E-05
  1.05341179529E-05  1.07111578196E-05  1.08911730767E-05  1.10742137297E-05
  1.12603306244E-05  1.14495754612E-05  1.16420008092E-05  1.18376601211E-05
  1.20366077481E-05  1.22388989547E-05  1.24445899340E-05  1.26537378240E-05
  1.28664007225E-05  1.30826377039E-05  1.33025088355E-05  1.35260751939E-05
  1.37533988825E-05  1.39845430480E-05  1.42195718988E-05  1.44585507221E-05
  1.47015459024E-05  1.49486249401E-05  1.51998564696E-05  1.54553102793E-05
  1.57150573300E-05  1.59791697756E-05  1.62477209821E-05  1.65207855490E-05
  1.67984393291E-05  1.70807594505E-05  1.73678243371E-05  1.76597137310E-05
  1.79565087144E-05  1.82582917325E-05  1.85651466156E-05  1.88771586033E-05
  1.91944143676E-05  1.95170020370E-05  1.98450112214E-05  2.01785330365E-05
  2.05176601294E-05  2.08624867043E-05  2.12131085485E-05  2.15696230593E-05
  2.19321292708E-05  2.23007278813E-05  2.26755212820E-05  2.30566135843E-05
  2.34441106498E-05  2.38381201190E-05  2.42387514415E-05  2.46461159064E-05
  2.50603266730E-05  2.54814988027E-05  2.59097492903E-05  2.63451970971E-05
  2.67879631836E-05  2.72381705433E-05  2.76959442365E-05  2.81614114257E-05
  2.86347014103E-05  2.91159456627E-05  2.96052778650E-05  3.01028339460E-05
  3.06087521189E-05  3.11231729197E-05  3.16462392464E-05  3.21780963987E-05
  3.27188921180E-05  3.32687766288E-05  3.38279026803E-05  3.43964255891E-05
  3.49745032816E-05  3.55622963389E-05  3.61599680404E-05  3.67676844101E-05
  3.73856142618E-05  3.80139292468E-05  3.86528039010E-05  3.93024156937E-05
  3.99629450768E-05  4.06345755350E-05  4.13174936365E-05  4.20118890853E-05
  4.27179547735E-05  4.34358868348E-05  4.41658846996E-05  4.49081511496E-05
  4.56628923749E-05  4.64303180305E-05  4.72106412953E-05  4.80040789306E-05
  4.88108513410E-05  4.96311826351E-05  5.04653006879E-05  5.13134372043E-05
  5.21758277833E-05  5.30527119832E-05  5.39443333886E-05  5.48509396780E-05
  5.57727826923E-05  5.67101185047E-05  5.76632074926E-05  5.86323144088E-05
  5.96177084561E-05  6.06196633613E-05  6.16384574516E-05  6.26743737321E-05
  6.37276999638E-05  6.47987287441E-05  6.58877575880E-05  6.69950890104E-05
  6.81210306106E-05  6.92658951573E-05  7.04300006758E-05  7.16136705363E-05
  7.28172335435E-05  7.40410240282E-05  7.52853819402E-05  7.65506529423E-05
  7.78371885069E-05  7.91453460133E-05  8.04754888470E-05  8.18279865005E-05
  8.32032146765E-05  8.46015553915E-05  8.60233970826E-05  8.74691347150E-05
  8.89391698916E-05  9.04339109651E-05  9.19537731509E-05  9.34991786427E-05
  9.50705567298E-05  9.66683439162E-05  9.82929840420E-05  9.99449284064E-05
  1.01624635894E-04  1.03332573100E-04  1.05069214463E-04  1.06835042395E-04
  1.08630547414E-04  1.10456228284E-04  1.12312592150E-04  1.14200154680E-04
  1.16119440210E-04  1.18070981886E-04  1.20055321817E-04  1.22073011220E-04
  1.24124610578E-04  1.26210689792E-04  1.28331828343E-04  1.30488615449E-04
  1.32681650232E-04  1.34911541882E-04  1.37178909828E-04  1.39484383908E-04
  1.41828604548E-04  1.44212222934E-04  1.46635901199E-04  1.49100312601E-04
  1.51606141715E-04  1.54154084621E-04  1.56744849098E-04  1.59379154818E-04
  1.62057733551E-04  1.64781329362E-04  1.67550698825E-04  1.70366611226E-04
  1.73229848781E-04  1.76141206852E-04  1.79101494169E-04  1.82111533053E-04
  1.85172159645E-04  1.88284224138E-04  1.91448591015E-04  1.94666139288E-04
  1.97937762740E-04  2.01264370176E-04  2.04646885677E-04  2.08086248850E-04
  2.11583415097E-04  2.15139355875E-04  2.18755058969E-04  2.22431528764E-04
  2.26169786524E-04  2.29970870680E-04  2.33835837112E-04  2.37765759447E-04
  2.41761729355E-04  2.45824856853E-04  2.49956270614E-04  2.54157118280E-04
  2.58428566780E-04  2.62771802655E-04  2.67188032386E-04  2.71678482734E-04
  2.76244401073E-04  2.80887055745E-04  2.85607736405E-04  2.90407754384E-04
  2.95288443051E-04  3.00251158184E-04  3.05297278348E-04  3.10428205274E-04
  3.15645364253E-04  3.20950204529E-04  3.26344199704E-04  3.31828848144E-04
  3.37405673397E-04  3.43076224619E-04  3.48842076997E-04  3.54704832196E-04
  3.60666118796E-04  3.66727592747E-04  3.72890937833E-04  3.79157866132E-04
  3.85530118499E-04  3.92009465044E-04  3.98597705628E-04  4.05296670360E-04
  4.12108220107E-04  4.19034247009E-04  4.26076675007E-04  4.33237460377E-04
  4.40518592272E-04  4.47922093275E-04  4.55450019962E-04  4.63104463472E-04
  4.70887550088E-04  4.78801441830E-04  4.86848337050E-04  4.95030471051E-04
  5.03350116699E-04  5.11809585060E-04  5.20411226041E-04  5.29157429043E-04
  5.38050623622E-04  5.47093280167E-04  5.56287910585E-04  5.65637069000E-04
  5.75143352461E-04  5.84809401662E-04  5.94637901679E-04  6.04631582715E-04
  6.14793220856E-04  6.25125638845E-04  6.35631706864E-04  6.46314343334E-04
  6.57176515721E-04  6.68221241367E-04  6.79451588320E-04  6.90870676195E-04
  7.02481677033E-04  7.14287816188E-04  7.26292373217E-04  7.38498682799E-04
  7.50910135652E-04  7.63530179482E-04  7.76362319938E-04  7.89410121586E-04
  8.02677208900E-04  8.16167267266E-04  8.29884044010E-04  8.43831349436E-04
  8.58013057885E-04  8.72433108812E-04  8.87095507878E-04  9.02004328068E-04
  9.17163710815E-04  9.32577867158E-04  9.48251078904E-04  9.64187699825E-04
  9.80392156863E-04  9.96868951359E-04  1.01362266031E-03  1.03065793762E-03
  1.04797951544E-03  1.06559220541E-03  1.08350090007E-03  1.10171057417E-03
  1.12022628607E-03  1.13905317915E-03  1.15819648320E-03  1.17766151595E-03
  1.19745368447E-03  1.21757848671E-03  1.23804151303E-03  1.25884844773E-03
  1.28000507065E-03  1.30151725877E-03  1.32339098782E-03  1.34563233399E-03
  1.36824747557E-03  1.39124269470E-03  1.41462437907E-03  1.43839902376E-03
  1.46257323298E-03  1.48715372195E-03  1.51214731874E-03  1.53756096617E-03
  1.56340172375E-03  1.58967676965E-03  1.61639340265E-03  1.64355904421E-03
  1.67118124051E-03  1.69926766458E-03  1.72782611836E-03  1.75686453496E-03
  1.78639098078E-03  1.81641365780E-03  1.84694090585E-03  1.87798120492E-03
  1.90954317750E-03  1.94163559103E-03  1.97426736027E-03  2.00744754979E-03
  2.04118537655E-03  2.07549021237E-03  2.11037158659E-03  2.14583918871E-03
  2.18190287107E-03  2.21857265159E-03  2.25585871656E-03  2.29377142346E-03
  2.33232130383E-03  2.37151906623E-03  2.41137559917E-03  2.45190197418E-03
  2.49310944883E-03  2.53500946992E-03  2.57761367660E-03  2.62093390366E-03
  2.66498218476E-03  2.70977075583E-03  2.75531205843E-03  2.80161874320E-03
  2.84870367341E-03  2.89657992852E-03  2.94526080779E-03  2.99475983400E-03
  3.04509075720E-03  3.09626755852E-03  3.14830445407E-03  3.20121589888E-03
  3.25501659092E-03  3.30972147516E-03  3.36534574776E-03  3.42190486026E-03
  3.47941452389E-03  3.53789071393E-03  3.59734967414E-03  3.65780792127E-03
  3.71928224969E-03  3.78178973598E-03  3.84534774373E-03  3.90997392836E-03
  3.97568624200E-03  4.04250293850E-03  4.11044257847E-03  4.17952403448E-03
  4.24976649626E-03  4.32118947606E-03  4.39381281406E-03  4.46765668387E-03
  4.54274159815E-03  4.61908841430E-03  4.69671834028E-03  4.77565294044E-03
  4.85591414156E-03  4.93752423895E-03  5.02050590260E-03  5.10488218351E-03
  5.19067652007E-03  5.27791274459E-03  5.36661508993E-03  5.45680819619E-03
  5.54851711759E-03  5.64176732942E-03  5.73658473512E-03  5.83299567347E-03
  5.93102692590E-03  6.03070572394E-03  6.13205975680E-03  6.23511717902E-03
  6.33990661833E-03  6.44645718357E-03  6.55479847282E-03  6.66496058157E-03
  6.77697411112E-03  6.89087017705E-03  7.00668041789E-03  7.12443700391E-03
  7.24417264601E-03  7.36592060487E-03  7.48971470016E-03  7.61558931991E-03
  7.74357943011E-03  7.87372058438E-03  8.00604893389E-03  8.14060123736E-03
  8.27741487130E-03  8.41652784037E-03  8.55797878796E-03  8.70180700691E-03
  8.84805245043E-03  8.99675574318E-03  9.14795819261E-03  9.30170180035E-03
  9.45802927396E-03  9.61698403874E-03  9.77861024982E-03  9.94295280440E-03
  1.01100573542E-02  1.02799703184E-02  1.04527388959E-02  1.06284110792E-02
  1.08070356673E-02  1.09886622792E-02  1.11733413680E-02  1.13611242345E-02
  1.15520630420E-02  1.17462108301E-02  1.19436215301E-02  1.21443499795E-02
  1.23484519376E-02  1.25559841007E-02  1.27670041178E-02  1.29815706070E-02
  1.31997431716E-02  1.34215824163E-02  1.36471499647E-02  1.38765084759E-02
  1.41097216619E-02  1.43468543058E-02  1.45879722793E-02  1.48331425611E-02