<PP_INFO>
Generated using ld1 code (trou)
Author: P. Giannozzi  Generation date: 2001?
Info: Chlorine PW91 3s2 3p5 sp; 3s2 3p4 3d0 d; l=1 local, Martins-Troullier
    0        The Pseudo was generated with a Non-Relativistic Calculation
  0.00000000000E+00    Local Potential cutoff radius
nl pn  l   occ               Rcut            Rcut US             E pseu
3S  0  0  2.00      1.83000000000      0.00000000000      0.00000000000
3P  0  1  5.00      1.83000000000      0.00000000000      0.00000000000
3D  0  2  0.00      2.83000000000      0.00000000000      0.00000000000
</PP_INFO>


<PP_HEADER>
   0                   Version Number
  Cl                   Element
   NC                  Norm - Conserving pseudopotential
    F                  Nonlinear Core Correction
 SLA  PW   GGX  GGC    PW91 Exchange-Correlation functional
    7.00000000000      Z valence
    0.00000000000      Total energy
  0.0000000  0.0000000 Suggested cutoff for wfc and rho
    2                  Max angular momentum component
  175                  Number of points in mesh
    3    2             Number of Wavefunctions, Number of Projectors
 Wavefunctions         nl  l   occ
                       3S  0  2.00
                       3P  1  5.00
                       3D  2  0.00
</PP_HEADER>


<PP_MESH>
  <PP_R>
  1.07739052287E-03  1.14687624168E-03  1.22084340434E-03  1.29958103912E-03
  1.38339681506E-03  1.47261824412E-03  1.56759396096E-03  1.66869508528E-03
  1.77631667190E-03  1.89087925452E-03  2.01283048892E-03  2.14264690220E-03
  2.28083575481E-03  2.42793702269E-03  2.58452550726E-03  2.75121308141E-03
  2.92865108046E-03  3.11753284726E-03  3.31859644140E-03  3.53262752325E-03
  3.76046242392E-03  4.00299141324E-03  4.26116217849E-03  4.53598352755E-03
  4.82852933082E-03  5.13994271738E-03  5.47144054180E-03  5.82431813905E-03
  6.19995438599E-03  6.59981708943E-03  7.02546872157E-03  7.47857252541E-03
  7.96089901392E-03  8.47433288832E-03  9.02088040264E-03  9.60267720317E-03
  1.02219966736E-02  1.08812588181E-02  1.15830397179E-02  1.23300815971E-02
  1.31253035381E-02  1.39718128880E-02  1.48729174003E-02  1.58321381605E-02
  1.68532233447E-02  1.79401628654E-02  1.90972039623E-02  2.03288677986E-02
  2.16399671277E-02  2.30356250986E-02  2.45212952752E-02  2.61027829459E-02
  2.77862678083E-02  2.95783281159E-02  3.14859663835E-02  3.35166367489E-02
  3.56782741007E-02  3.79793250840E-02  4.04287811054E-02  4.30362134674E-02
  4.58118107689E-02  4.87664187165E-02  5.19115825050E-02  5.52595919302E-02
  5.88235294118E-02  6.26173211128E-02  6.66557913569E-02  7.09547205542E-02
  7.55309068640E-02  8.04022318338E-02  8.55877302717E-02  9.11076646255E-02
  9.69836041588E-02  1.03238509233E-01  1.09896821025E-01  1.16984557034E-01
  1.24529412742E-01  1.32560869836E-01  1.41110311410E-01  1.50211144592E-01
  1.59898931086E-01  1.70211526128E-01  1.81189226407E-01  1.92874927526E-01
  2.05314291615E-01  2.18555925761E-01  2.32651571937E-01  2.47656309185E-01
  2.63628768843E-01  2.80631363645E-01  2.98730531599E-01  3.17996995597E-01
  3.38506039765E-01  3.60337803640E-01  3.83577595314E-01  4.08316224776E-01
  4.34650358761E-01  4.62682898467E-01  4.92523381655E-01  5.24288410659E-01
  5.58102108021E-01  5.94096601499E-01  6.32412540357E-01  6.73199644961E-01
  7.16617291806E-01  7.62835136292E-01  8.12033775651E-01  8.64405454635E-01
  9.20154816717E-01  9.79499703742E-01  1.04267200714E+00  1.10991857407E+00
  1.18150217195E+00  1.25770251524E+00  1.33881735844E+00  1.42516365957E+00
  1.51707881866E+00  1.61492199620E+00  1.71907551654E+00  1.82994636182E+00
  1.94796776228E+00  2.07360088909E+00  2.20733665645E+00  2.34969763975E+00
  2.50124011765E+00  2.66255624566E+00  2.83427637006E+00  3.01707149098E+00
  3.21165588430E+00  3.41878989279E+00  3.63928289708E+00  3.87399647838E+00
  4.12384778510E+00  4.38981311666E+00  4.67293173837E+00  4.97430994239E+00
  5.29512537062E+00  5.63663161630E+00  6.00016312251E+00  6.38714039652E+00
  6.79907556042E+00  7.23757825983E+00  7.70436195358E+00  8.20125060908E+00
  8.73018582956E+00  9.29323444089E+00  9.89259656776E+00  1.05306142307E+01
  1.12097804976E+01  1.19327492253E+01  1.27023454300E+01  1.35215763255E+01
  1.43936430744E+01  1.53219532963E+01  1.63101343837E+01  1.73620476757E+01
  1.84818035462E+01  1.96737774658E+01  2.09426270983E+01  2.22933105013E+01
  2.37311054996E+01  2.52616303083E+01  2.68908654864E+01  2.86251773058E+01
  3.04713426275E+01  3.24365753828E+01  3.45285547613E+01  3.67554552178E+01
  3.91259784144E+01  4.16493872218E+01  4.43355419150E+01  4.71949387016E+01
  5.02387507368E+01  5.34788717823E+01  5.69279626815E+01
  </PP_R>
  <PP_RAB>
  6.73369076792E-05  7.16797651051E-05  7.63027127710E-05  8.12238149451E-05
  8.64623009412E-05  9.20386402572E-05  9.79746225601E-05  1.04293442830E-04
  1.11019791994E-04  1.18179953408E-04  1.25801905558E-04  1.33915431387E-04
  1.42552234675E-04  1.51746063918E-04  1.61532844204E-04  1.71950817588E-04
  1.83040692529E-04  1.94845802954E-04  2.07412277587E-04  2.20789220203E-04
  2.35028901495E-04  2.50186963327E-04  2.66322636155E-04  2.83498970472E-04
  3.01783083176E-04  3.21246419836E-04  3.41965033863E-04  3.64019883691E-04
  3.87497149125E-04  4.12488568089E-04  4.39091795098E-04  4.67410782838E-04
  4.97556188370E-04  5.29645805520E-04  5.63805025165E-04  6.00167325198E-04
  6.38874792097E-04  6.80078676130E-04  7.23939982368E-04  7.70630099820E-04
  8.20331471134E-04  8.73238305498E-04  9.29557337517E-04  9.89508635034E-04
  1.05332645904E-03  1.12126017908E-03  1.19357524764E-03  1.27055423742E-03
  1.35249794548E-03  1.43972656866E-03  1.53258095470E-03  1.63142393412E-03
  1.73664173802E-03  1.84864550725E-03  1.96787289897E-03  2.09478979680E-03
  2.22989213130E-03  2.37370781775E-03  2.52679881908E-03  2.68976334172E-03
  2.86323817306E-03  3.04790116978E-03  3.24447390656E-03  3.45372449564E-03
  3.67647058824E-03  3.91358256955E-03  4.16598695980E-03  4.43467003464E-03
  4.72068167900E-03  5.02513948961E-03  5.34923314198E-03  5.69422903910E-03
  6.06147525993E-03  6.45240682706E-03  6.86855131409E-03  7.31153481464E-03
  7.78308829637E-03  8.28505436475E-03  8.81939446311E-03  9.38819653700E-03
  9.99368319286E-03  1.06382203830E-02  1.13243266504E-02  1.20546829704E-02
  1.28321432260E-02  1.36597453601E-02  1.45407232460E-02  1.54785193241E-02
  1.64767980527E-02  1.75394602278E-02  1.86706582249E-02  1.98748122248E-02
  2.11566274853E-02  2.25211127275E-02  2.39735997071E-02  2.55197640485E-02
  2.71656474225E-02  2.89176811542E-02  3.07827113534E-02  3.27680256662E-02
  3.48813817513E-02  3.71310375937E-02  3.95257837723E-02  4.20749778100E-02
  4.47885807379E-02  4.76771960183E-02  5.07521109782E-02  5.40253409147E-02
  5.75096760448E-02  6.12187314839E-02  6.51670004466E-02  6.93699108797E-02
  7.38438857470E-02  7.86064072027E-02  8.36760849027E-02  8.90727287228E-02
  9.48174261662E-02  1.00932624763E-01  1.07442219784E-01  1.14371647614E-01
  1.21747985142E-01  1.29600055568E-01  1.37958541028E-01  1.46856102485E-01
  1.56327507353E-01  1.66409765354E-01  1.77142273129E-01  1.88566968186E-01
  2.00728492769E-01  2.13674368299E-01  2.27455181068E-01  2.42124779899E-01
  2.57740486569E-01  2.74363319791E-01  2.92058233648E-01  3.10894371400E-01
  3.30945335664E-01  3.52289476019E-01  3.75010195157E-01  3.99196274782E-01
  4.24942222526E-01  4.52348641240E-01  4.81522622099E-01  5.12578163068E-01
  5.45636614348E-01  5.80827152556E-01  6.18287285485E-01  6.58163389418E-01
  7.00611281098E-01  7.45796826584E-01  7.93896589377E-01  8.45098520346E-01
  8.99602692148E-01  9.57622081019E-01  1.01938339898E+00  1.08512797973E+00
  1.15511272164E+00  1.22961109161E+00  1.30891419364E+00  1.39333190633E+00
  1.48319409372E+00  1.57885189427E+00  1.68067909290E+00  1.78907358161E+00
  1.90445891422E+00  2.02728596143E+00  2.15803467258E+00  2.29721595111E+00
  2.44537365090E+00  2.60308670137E+00  2.77097136969E+00  2.94968366885E+00
  3.13992192105E+00  3.34242948639E+00  3.55799766759E+00
  </PP_RAB>
</PP_MESH>


<PP_LOCAL>
 -1.30957170000E+01 -1.30968420000E+01 -1.30981160000E+01 -1.30995590000E+01
 -1.31011930000E+01 -1.31030420000E+01 -1.31051350000E+01 -1.31075040000E+01
 -1.31101840000E+01 -1.31132160000E+01 -1.31166460000E+01 -1.31205240000E+01
 -1.31249070000E+01 -1.31298610000E+01 -1.31354570000E+01 -1.31417760000E+01
 -1.31489070000E+01 -1.31569520000E+01 -1.31660220000E+01 -1.31762390000E+01
 -1.31877410000E+01 -1.32006770000E+01 -1.32152120000E+01 -1.32315250000E+01
 -1.32498090000E+01 -1.32702710000E+01 -1.32931350000E+01 -1.33186310000E+01
 -1.33470010000E+01 -1.33784900000E+01 -1.34133430000E+01 -1.34517930000E+01
 -1.34940530000E+01 -1.35403040000E+01 -1.35906750000E+01 -1.36452230000E+01
 -1.37039120000E+01 -1.37665780000E+01 -1.38329070000E+01 -1.39023930000E+01
 -1.39743070000E+01 -1.40476700000E+01 -1.41212230000E+01 -1.41934260000E+01
 -1.42624580000E+01 -1.43262680000E+01 -1.43826450000E+01 -1.44293480000E+01
 -1.44642700000E+01 -1.44856660000E+01 -1.44923940000E+01 -1.44841770000E+01
 -1.44618220000E+01 -1.44273450000E+01 -1.43839580000E+01 -1.43358450000E+01
 -1.42877390000E+01 -1.42443020000E+01 -1.42094310000E+01 -1.41856280000E+01
 -1.41736110000E+01 -1.41723030000E+01 -1.41792360000E+01 -1.41912530000E+01
 -1.42053030000E+01 -1.42190630000E+01 -1.42312040000E+01 -1.42413040000E+01
 -1.42495160000E+01 -1.42561930000E+01 -1.42616190000E+01 -1.42658940000E+01
 -1.42689400000E+01 -1.42705640000E+01 -1.42705160000E+01 -1.42685400000E+01
 -1.42644010000E+01 -1.42578990000E+01 -1.42488810000E+01 -1.42372430000E+01
 -1.42229350000E+01 -1.42059490000E+01 -1.41863210000E+01 -1.41641190000E+01
 -1.41394320000E+01 -1.41123600000E+01 -1.40830050000E+01 -1.40514590000E+01
 -1.40177970000E+01 -1.39820780000E+01 -1.39443340000E+01 -1.39045820000E+01
 -1.38628140000E+01 -1.38190060000E+01 -1.37731180000E+01 -1.37250840000E+01
 -1.36748130000E+01 -1.36221660000E+01 -1.35669330000E+01 -1.35087970000E+01
 -1.34472730000E+01 -1.33816480000E+01 -1.33110720000E+01 -1.32354370000E+01
 -1.31561060000E+01 -1.30647530000E+01 -1.29254210000E+01 -1.27451260000E+01
 -1.26102340000E+01 -1.24338300000E+01 -1.21145060000E+01 -1.17945780000E+01
 -1.14414830000E+01 -1.09837030000E+01 -1.04679860000E+01 -9.90477850000E+00
 -9.30989960000E+00 -8.71328680000E+00 -8.15190040000E+00 -7.64974140000E+00
 -7.18675150000E+00 -6.75144080000E+00 -6.34244220000E+00 -5.95819760000E+00
 -5.59721960000E+00 -5.25810520000E+00 -4.93953380000E+00 -4.64026270000E+00
 -4.35912320000E+00 -4.09501700000E+00 -3.84691220000E+00 -3.61383960000E+00
 -3.39488820000E+00 -3.18920230000E+00 -2.99597850000E+00 -2.81446150000E+00
 -2.64394180000E+00 -2.48375330000E+00 -2.33327030000E+00 -2.19190460000E+00
 -2.05910380000E+00 -1.93434900000E+00 -1.81715270000E+00 -1.70705700000E+00
 -1.60363160000E+00 -1.50647250000E+00 -1.41519990000E+00 -1.32945730000E+00
 -1.24890960000E+00 -1.17324200000E+00 -1.10215880000E+00 -1.03538240000E+00
 -9.72651750000E-01 -9.13721760000E-01 -8.58362150000E-01 -8.06356620000E-01
 -7.57501950000E-01 -7.11607220000E-01 -6.68493120000E-01 -6.27991170000E-01
 -5.89943110000E-01 -5.54200260000E-01 -5.20622960000E-01 -4.89080010000E-01
 -4.59448150000E-01 -4.31611600000E-01 -4.05461570000E-01 -3.80895900000E-01
 -3.57818580000E-01 -3.36139450000E-01 -3.15773790000E-01 -2.96642020000E-01
 -2.78669390000E-01 -2.61785670000E-01 -2.45924880000E-01
</PP_LOCAL>


<PP_NONLOCAL>
  <PP_BETA>
    1    0             Beta    L
   148
  3.75928766999E-03  4.00174093582E-03  4.25983096798E-03  4.53456677774E-03
  4.82702171138E-03  5.13833808378E-03  5.46973207852E-03  5.82250029796E-03
  6.19801942358E-03  6.59775787855E-03  7.02327801213E-03  7.47624167337E-03
  7.95841822262E-03  8.47169377387E-03  9.01807273195E-03  9.59969089540E-03
  1.02188186366E-02  1.08778791022E-02  1.15794462767E-02  1.23262594343E-02
  1.31212397811E-02  1.39674915959E-02  1.48683246448E-02  1.58272585187E-02
  1.68480403665E-02  1.79346546315E-02  1.90913587546E-02  2.03226633087E-02
  2.16333840659E-02  2.30286405177E-02  2.45138925162E-02  2.60949414721E-02
  2.77779631578E-02  2.95695421189E-02  3.14766816064E-02  3.35068311277E-02
  3.56679370177E-02  3.79684304431E-02  4.04173246630E-02  4.30241906057E-02
  4.57992125375E-02  4.87532574034E-02  5.18978604658E-02  5.52453500380E-02
  5.88087935812E-02  6.26021516792E-02  6.66402618879E-02  7.09389523802E-02
  7.55150206483E-02  8.03864237273E-02  8.55722164864E-02  9.10927256557E-02
  9.69696199688E-02  1.03225925146E-01  1.09886213611E-01  1.16976594150E-01
  1.24524968672E-01  1.32560985340E-01  1.41116262383E-01  1.50224494333E-01
  1.59921581636E-01  1.70245772444E-01  1.81237891825E-01  1.92941371275E-01
  2.05402556439E-01  2.18670979796E-01  2.32799322900E-01  2.47843831193E-01
  2.63864564623E-01  2.80925584733E-01  2.99095313593E-01  3.18446746358E-01
  3.39057802568E-01  3.61011847185E-01  3.84397688310E-01  4.09310238124E-01
  4.35850861212E-01  4.64127518840E-01  4.94255376566E-01  5.26356919955E-01
  5.60562600663E-01  5.97010136024E-01  6.35845296011E-01  6.77221067694E-01
  7.21296855099E-01  7.68237322387E-01  8.18210023589E-01  8.71381916791E-01
  9.27913889948E-01  9.87954186174E-01  1.05162617505E+00  1.11901503336E+00
  1.19014442968E+00  1.26494887737E+00  1.34323343528E+00  1.42461823138E+00
  1.50846821184E+00  1.59379534366E+00  1.67913520241E+00  1.76239078677E+00
  1.84063891109E+00  1.90990696083E+00  1.96493303353E+00  1.99894910268E+00
  2.00356070522E+00  1.96886507278E+00  1.88400415894E+00  1.73846366279E+00
  1.52443494626E+00  1.24047465226E+00  8.96231710709E-01  5.17100278646E-01
  1.46183190420E-01 -1.60306918447E-01 -3.47611217158E-01 -3.85939555971E-01
 -2.93468798866E-01 -1.41726048810E-01 -2.70618728579E-02  0.00000000000E+00
  0.00000000000E+00  0.00000000000E+00  0.00000000000E+00  0.00000000000E+00
  0.00000000000E+00  0.00000000000E+00  0.00000000000E+00  0.00000000000E+00
  0.00000000000E+00  0.00000000000E+00  0.00000000000E+00  0.00000000000E+00
  0.00000000000E+00  0.00000000000E+00  0.00000000000E+00  0.00000000000E+00
  0.00000000000E+00  0.00000000000E+00  0.00000000000E+00  0.00000000000E+00
  0.00000000000E+00  0.00000000000E+00  0.00000000000E+00  0.00000000000E+00
  0.00000000000E+00  0.00000000000E+00  0.00000000000E+00  0.00000000000E+00
  </PP_BETA>
  <PP_BETA>
    2    2             Beta    L
   148
 -2.22791336398E-09 -2.68737715218E-09 -3.24159556303E-09 -3.91011036021E-09
 -4.71649181013E-09 -5.68917663052E-09 -6.86245689348E-09 -8.27770267612E-09
 -9.98481499047E-09 -1.20439846820E-08 -1.45278170840E-08 -1.75238898518E-08
 -2.11378419599E-08 -2.54970979898E-08 -3.07553613771E-08 -3.70980218784E-08
 -4.47487508980E-08 -5.39772689849E-08 -6.51089540251E-08 -7.85363606222E-08
 -9.47328537783E-08 -1.14269521032E-07 -1.37835196237E-07 -1.66260767352E-07
 -2.00548394997E-07 -2.41907199898E-07 -2.91795102173E-07 -3.51971264442E-07
 -4.24557297890E-07 -5.12112488708E-07 -6.17723471789E-07 -7.45113831965E-07
 -8.98774827039E-07 -1.08412391681E-06 -1.30769552573E-06 -1.57737155500E-06
 -1.90265848159E-06 -2.29502557141E-06 -2.76830262609E-06 -3.33917377803E-06
 -4.02776252503E-06 -4.85833907447E-06 -5.86018383360E-06 -7.06860037865E-06
 -8.52618694271E-06 -1.02843011990E-05 -1.24049109712E-05 -1.49627241485E-05
 -1.80478822135E-05 -2.17690532020E-05 -2.62573409795E-05 -3.16708269047E-05
 -3.82001467033E-05 -4.60752333505E-05 -5.55733002729E-05 -6.70287014633E-05
 -8.08445100615E-05 -9.75067887350E-05 -1.17601559555E-04 -1.41835272053E-04
 -1.71059588373E-04 -2.06301257019E-04 -2.48797467733E-04 -3.00039544616E-04
 -3.61824487481E-04 -4.36317347732E-04 -5.26126199104E-04 -6.34392886863E-04
 -7.64900423303E-04 -9.22203132287E-04 -1.11178255272E-03 -1.34023524644E-03
 -1.61549476258E-03 -1.94710003053E-03 -2.34651532461E-03 -2.82751008863E-03
 -3.40661213766E-03 -4.10365127306E-03 -4.94238820503E-03 -5.95128267737E-03
 -7.16435865303E-03 -8.62227108515E-03 -1.03734963793E-02 -1.24757393516E-02
 -1.49975494331E-02 -1.80201291592E-02 -2.16393948066E-02 -2.59681866392E-02
 -3.11387020130E-02 -3.73049211484E-02 -4.46450390182E-02 -5.33634041795E-02
 -6.36921455082E-02 -7.58911253624E-02 -9.02463386052E-02 -1.07065262504E-01
 -1.26667551135E-01 -1.49370342633E-01 -1.75464828749E-01 -2.05182330724E-01
 -2.38648303435E-01 -2.75821089576E-01 -3.16416450562E-01 -3.59821552898E-01
 -4.05005905255E-01 -4.50445196672E-01 -4.94085932314E-01 -5.33382012801E-01
 -5.65448113624E-01 -5.87352511760E-01 -5.96556196379E-01 -5.91420574490E-01
 -5.71627900140E-01 -5.38247324280E-01 -4.93168451026E-01 -4.37768813023E-01
 -3.71156178219E-01 -2.89172993791E-01 -1.86759984455E-01 -6.87148943353E-02
  3.51594175844E-02  1.02731873411E-01  1.24906738442E-01  1.03557293480E-01
  5.53626825789E-02  1.18824959477E-02  0.00000000000E+00  0.00000000000E+00
  0.00000000000E+00  0.00000000000E+00  0.00000000000E+00  0.00000000000E+00
  0.00000000000E+00  0.00000000000E+00  0.00000000000E+00  0.00000000000E+00
  0.00000000000E+00  0.00000000000E+00  0.00000000000E+00  0.00000000000E+00
  0.00000000000E+00  0.00000000000E+00  0.00000000000E+00  0.00000000000E+00
  0.00000000000E+00  0.00000000000E+00  0.00000000000E+00  0.00000000000E+00
  </PP_BETA>
  <PP_DIJ>
    2                  Number of nonzero Dij
    1    1  1.68788192411E+00
    2    2 -6.00548134784E+00
  </PP_DIJ>
</PP_NONLOCAL>


<PP_PSWFC>
3S    0  2.00          Wavefunction
  7.43017880000E-04  7.90938440000E-04  8.41949620000E-04  8.96250750000E-04
  9.54054000000E-04  1.01558530000E-03  1.08108490000E-03  1.15080900000E-03
  1.22502990000E-03  1.30403770000E-03  1.38814100000E-03  1.47766860000E-03
  1.57297030000E-03  1.67441840000E-03  1.78240940000E-03  1.89736530000E-03
  2.01973530000E-03  2.14999760000E-03  2.28866110000E-03  2.43626790000E-03
  2.59339460000E-03  2.76065530000E-03  2.93870370000E-03  3.12823540000E-03
  3.32999130000E-03  3.54475970000E-03  3.77338000000E-03  4.01674560000E-03
  4.27580770000E-03  4.55157870000E-03  4.84513640000E-03  5.15762830000E-03
  5.49027570000E-03  5.84437890000E-03  6.22132200000E-03  6.62257860000E-03
  7.04971720000E-03  7.50440780000E-03  7.98842820000E-03  8.50367080000E-03
  9.05215070000E-03  9.63601280000E-03  1.02575410000E-02  1.09191660000E-02
  1.16234770000E-02  1.23732290000E-02  1.31713580000E-02  1.40209870000E-02
  1.49254430000E-02  1.58882690000E-02  1.69132360000E-02  1.80043620000E-02
  1.91659250000E-02  2.04024820000E-02  2.17188840000E-02  2.31203010000E-02
  2.46122400000E-02  2.62005670000E-02  2.78915340000E-02  2.96918010000E-02
  3.16084670000E-02  3.36491010000E-02  3.58217700000E-02  3.81350770000E-02
  4.05981990000E-02  4.32209250000E-02  4.60137040000E-02  4.89876880000E-02
  5.21547900000E-02  5.55277330000E-02  5.91201210000E-02  6.29465000000E-02
  6.70224370000E-02  7.13645990000E-02  7.59908490000E-02  8.09203420000E-02
  8.61736430000E-02  9.17728490000E-02  9.77417340000E-02  1.04105910000E-01
  1.10892990000E-01  1.18132820000E-01  1.25857700000E-01  1.34102640000E-01
  1.42905660000E-01  1.52308170000E-01  1.62355300000E-01  1.73096430000E-01
  1.84585650000E-01  1.96882360000E-01  2.10051970000E-01  2.24166560000E-01
  2.39305740000E-01  2.55557510000E-01  2.73019060000E-01  2.91797640000E-01
  3.12011120000E-01  3.33788210000E-01  3.57267940000E-01  3.82597910000E-01
  4.09930530000E-01  4.39416140000E-01  4.71191290000E-01  5.05360140000E-01
  5.41965820000E-01  5.80948360000E-01  6.22085560000E-01  6.64914050000E-01
  7.08631470000E-01  7.51988310000E-01  7.93191390000E-01  8.29860650000E-01
  8.59102660000E-01  8.77773620000E-01  8.82976870000E-01  8.72748800000E-01
  8.46730160000E-01  8.06466300000E-01  7.54981890000E-01  6.95627400000E-01
  6.31032510000E-01  5.63436760000E-01  4.94971570000E-01  4.27610460000E-01
  3.63097940000E-01  3.02888940000E-01  2.48098950000E-01  1.99470390000E-01
  1.57363110000E-01  1.21773530000E-01  9.23809320000E-02  6.86189570000E-02
  4.97757640000E-02  3.51224310000E-02  2.40142570000E-02  1.58786010000E-02
  1.01498790000E-02  6.27090370000E-03  3.74152730000E-03  2.15252980000E-03
  1.19166240000E-03  6.33348430000E-04  3.22325460000E-04  1.56637620000E-04
  7.24681480000E-05  3.18169320000E-05  1.32112610000E-05  5.16911720000E-06
  1.89833530000E-06  6.51609810000E-07  2.08111220000E-07  6.15425840000E-08
  1.67621490000E-08  4.18074180000E-09  9.48857320000E-10  1.94597770000E-10
  3.57851440000E-11  5.86373210000E-12  9.56960310000E-13  1.38296460000E-13
  1.75598460000E-14  1.94266700000E-15  1.85603340000E-16  1.51696580000E-17
  1.05001700000E-18  6.08966380000E-20  2.92558360000E-21  1.15021780000E-22
  3.65327260000E-24  9.24575590000E-26  1.83738260000E-27  2.82281110000E-29
  3.29746720000E-31  2.87754480000E-33  0.00000000000E+00
3P    1  5.00          Wavefunction
  1.30221780000E-06  1.47560600000E-06  1.67208060000E-06  1.89471530000E-06
  2.14699350000E-06  2.43286210000E-06  2.75679360000E-06  3.12385600000E-06
  3.53979200000E-06  4.01110910000E-06  4.54518110000E-06  5.15036370000E-06
  5.83612510000E-06  6.61319410000E-06  7.49372800000E-06  8.49150290000E-06
  9.62212900000E-06  1.09032950000E-05  1.23550450000E-05  1.40000900000E-05
  1.58641690000E-05  1.79764420000E-05  2.03699580000E-05  2.30821610000E-05
  2.61554820000E-05  2.96380010000E-05  3.35842010000E-05  3.80558150000E-05
  4.31227980000E-05  4.88644160000E-05  5.53704890000E-05  6.27427920000E-05
  7.10966520000E-05  8.05627460000E-05  9.12891460000E-05  1.03443630000E-04
  1.17216320000E-04  1.32822640000E-04  1.50506660000E-04  1.70544980000E-04
  1.93250960000E-04  2.18979680000E-04  2.48133490000E-04  2.81168220000E-04
  3.18600390000E-04  3.61015180000E-04  4.09075630000E-04  4.63532940000E-04
  5.25238170000E-04  5.95155540000E-04  6.74377390000E-04  7.64141200000E-04
  8.65848830000E-04  9.81088270000E-04  1.11165830000E-03  1.25959650000E-03
  1.42721030000E-03  1.61711340000E-03  1.83226560000E-03  2.07601840000E-03
  2.35216670000E-03  2.66500700000E-03  3.01940300000E-03  3.42085970000E-03
  3.87560730000E-03  4.39069540000E-03  4.97409900000E-03  5.63483830000E-03
  6.38311300000E-03  7.23045310000E-03  8.18988860000E-03  9.27613890000E-03
  1.05058250000E-02  1.18977050000E-02  1.34729420000E-02  1.52553890000E-02
  1.72719210000E-02  1.95527890000E-02  2.21320120000E-02  2.50478060000E-02
  2.83430530000E-02  3.20657980000E-02  3.62697900000E-02  4.10150430000E-02
  4.63684240000E-02  5.24042510000E-02  5.92048810000E-02  6.68612690000E-02
  7.54734660000E-02  8.51510010000E-02  9.60131030000E-02  1.08188670000E-01
  1.21815910000E-01  1.37041460000E-01  1.54018930000E-01  1.72906530000E-01
  1.93863660000E-01  2.17046040000E-01  2.42599120000E-01  2.70649260000E-01
  3.01292250000E-01  3.34578790000E-01  3.70496250000E-01  4.08946710000E-01
  4.49720990000E-01  4.92469360000E-01  5.36670300000E-01  5.81599920000E-01
  6.26306840000E-01  6.69599450000E-01  7.10055290000E-01  7.46064060000E-01
  7.75916070000E-01  7.97943340000E-01  8.10708500000E-01  8.13216790000E-01
  8.05098780000E-01  7.86687850000E-01  7.58917720000E-01  7.23033820000E-01
  6.80303670000E-01  6.32048320000E-01  5.79681260000E-01  5.24672210000E-01
  4.68502090000E-01  4.12611120000E-01  3.58336470000E-01  3.06842810000E-01
  2.59056450000E-01  2.15614080000E-01  1.76834080000E-01  1.42723340000E-01
  1.13051800000E-01  8.75312910000E-02  6.60063210000E-02  4.84111740000E-02
  3.45474220000E-02  2.40001580000E-02  1.62267530000E-02  1.06668440000E-02
  6.80734730000E-03  4.20990800000E-03  2.51792440000E-03  1.45323940000E-03
  8.07490450000E-04  4.30880570000E-04  2.20210610000E-04  1.07485120000E-04
  4.99543250000E-05  2.20348980000E-05  9.19318560000E-06  3.61442320000E-06
  1.33388440000E-06  4.60116280000E-07  1.47676990000E-07  4.38857910000E-08
  1.20114060000E-08  3.01032290000E-09  6.86572510000E-10  1.41971580000E-10
  2.90453540000E-11  5.33670500000E-12  8.74528380000E-13  1.26872540000E-13
  1.61672600000E-14  1.79449530000E-15  1.71954320000E-16  1.40905210000E-17
  9.77455450000E-19  5.67875330000E-20  2.73164550000E-21  1.07478060000E-22
  3.41434440000E-24  8.63757110000E-26  1.71471170000E-27
3D    2  0.00          Wavefunction
  7.61703480000E-10  9.18789690000E-10  1.10827190000E-09  1.33683100000E-09
  1.61252600000E-09  1.94507750000E-09  2.34621130000E-09  2.83007090000E-09
  3.41371700000E-09  4.11772830000E-09  4.96692790000E-09  5.99125780000E-09
  7.22683500000E-09  8.71722480000E-09  1.05149770000E-08  1.26834790000E-08
  1.52991890000E-08  1.84543350000E-08  2.22601640000E-08  2.68508640000E-08
  3.23882970000E-08  3.90677050000E-08  4.71245940000E-08  5.68430370000E-08
  6.85656870000E-08  8.27058610000E-08  9.97621130000E-08  1.20335800000E-07
  1.45152310000E-07  1.75086580000E-07  2.11194010000E-07  2.54747610000E-07
  3.07282900000E-07  3.70652060000E-07  4.47089150000E-07  5.39288920000E-07
  6.50501770000E-07  7.84648270000E-07  9.46457370000E-07  1.14163300000E-06
  1.37705520000E-06  1.66102230000E-06  2.00354330000E-06  2.41669070000E-06
  2.91502540000E-06  3.51610980000E-06  4.24112570000E-06  5.11562040000E-06
  6.17040600000E-06  7.44264290000E-06  8.97714800000E-06  1.08279700000E-05
  1.30602900000E-05  1.57527120000E-05  1.90000230000E-05  2.29165240000E-05
  2.76400370000E-05  3.33367370000E-05  4.02069810000E-05  4.84923160000E-05
  5.84839300000E-05  7.05328280000E-05  8.50620750000E-05  1.02581550000E-04
  1.23705670000E-04  1.49174750000E-04  1.79880630000E-04  2.16897580000E-04
  2.61519260000E-04  3.15303280000E-04  3.80124540000E-04  4.58239250000E-04
  5.52361610000E-04  6.65755570000E-04  8.02344590000E-04  9.66842660000E-04
  1.16491060000E-03  1.40334200000E-03  1.69028440000E-03  2.03550130000E-03
  2.45068220000E-03  2.94980800000E-03  3.54958050000E-03  4.26992520000E-03
  5.13457680000E-03  6.17175690000E-03  7.41495430000E-03  8.90381380000E-03
  1.06851410000E-02  1.28140210000E-02  1.53550450000E-02  1.83836270000E-02
  2.19873740000E-02  2.62674580000E-02  3.13398870000E-02  3.73365690000E-02
  4.44059580000E-02  5.27130530000E-02  6.24384000000E-02  7.37756770000E-02
  8.69273340000E-02  1.02097650000E-01  1.19482510000E-01  1.39255270000E-01
  1.61547960000E-01  1.86427810000E-01  2.13869090000E-01  2.43721810000E-01
  2.75679750000E-01  3.09252370000E-01  3.43747070000E-01  3.78269980000E-01
  4.11754380000E-01  4.43024520000E-01  4.70897810000E-01  4.94320290000E-01
  5.12518950000E-01  5.25142060000E-01  5.32351060000E-01  5.34827420000E-01
  5.33669350000E-01  5.30174570000E-01  5.25531450000E-01  5.20478120000E-01
  5.15049610000E-01  5.08620590000E-01  5.00444010000E-01  4.90356240000E-01
  4.78484590000E-01  4.64856570000E-01  4.49242790000E-01  4.31026430000E-01
  4.09216550000E-01  3.82918750000E-01  3.52268920000E-01  3.18778010000E-01
  2.84453840000E-01  2.50846140000E-01  2.18847300000E-01  1.88907920000E-01
  1.61253580000E-01  1.36004050000E-01  1.13222680000E-01  9.29315220000E-02
  7.51130030000E-02  5.97081590000E-02  4.66157480000E-02  3.56939520000E-02
  2.67651030000E-02  1.96231720000E-02  1.40433620000E-02  9.79285190000E-03
  6.64162570000E-03  4.37230630000E-03  2.78811870000E-03  1.71836730000E-03
  1.02119010000E-03  5.83717520000E-04  3.20079370000E-04  1.67900990000E-04
  8.40029390000E-05  3.99579850000E-05  1.80099870000E-05  7.66407400000E-06
  3.06741500000E-06  1.14991570000E-06  4.01999940000E-07  1.30435340000E-07
  3.90800920000E-08  1.07524700000E-08  2.70095000000E-09  6.17657350000E-10
  1.39480910000E-10  2.83642970000E-11  5.15905280000E-12
</PP_PSWFC>


<PP_RHOATOM>
  1.10415961886E-06  1.25117811880E-06  1.41777230450E-06  1.60654876348E-06
  1.82046111774E-06  2.06285659724E-06  2.33752712157E-06  2.64877150134E-06
  3.00145916243E-06  3.40110909102E-06  3.85397416512E-06  4.36714161408E-06
  4.94864143115E-06  5.60757262820E-06  6.35424731821E-06  7.20035069140E-06
  8.15912429096E-06  9.24557376922E-06  1.04767024970E-05  1.18717825737E-05
  1.34526494619E-05  1.52440511332E-05  1.72740335487E-05  1.95743773664E-05
  2.21811046623E-05  2.51350347170E-05  2.84824327416E-05  3.22757316555E-05
  3.65743608533E-05  4.14456759803E-05  4.69660229245E-05  5.32219426517E-05
  6.03115281936E-05  6.83459812337E-05  7.74513633963E-05  8.77705975493E-05
  9.94657235283E-05  1.12720482126E-04  1.27743231487E-04  1.44770262101E-04
  1.64069594259E-04  1.85945245865E-04  2.10742145878E-04  2.38851650111E-04
  2.70717966182E-04  3.06845251574E-04  3.47806057484E-04  3.94250466841E-04
  4.46917073169E-04  5.06645234217E-04  5.74389028304E-04  6.51233660922E-04
  7.38413833193E-04  8.37335214488E-04  9.49598765291E-04  1.07702955338E-03
  1.22170936184E-03  1.38601470099E-03  1.57266132389E-03  1.78475535523E-03
  2.02585381310E-03  2.30003530777E-03  2.61198238425E-03  2.96707960103E-03
  3.37152918381E-03  3.83248774619E-03  4.35823021591E-03  4.95834416451E-03
  5.64396489774E-03  6.42805552440E-03  7.32574879051E-03  8.35475748896E-03
  9.53587591749E-03  1.08935889022E-02  1.24568190942E-02  1.42598379665E-02
  1.63433897709E-02  1.87560694155E-02  2.15560229065E-02  2.48130439209E-02
  2.86111537291E-02  3.30518033292E-02  3.82578096318E-02  4.43782048714E-02
  5.15942090413E-02  6.01265849119E-02  7.02445765473E-02  8.22768946189E-02
  9.66249447221E-02  1.13778792215E-01  1.34336239940E-01  1.59025234826E-01
  1.88730054040E-01  2.24521090629E-01  2.67687968238E-01  3.19775066002E-01
  3.82617471350E-01  4.58374055668E-01  5.49552427028E-01  6.59017431165E-01
  7.89971178402E-01  9.45887921774E-01  1.13037981986E+00  1.34696480030E+00
  1.59869874433E+00  1.88763234667E+00  2.21405594243E+00  2.57551372249E+00
  2.96561840970E+00  3.37278995395E+00  3.77919773663E+00  4.16039530496E+00
  4.48634349926E+00  4.72454092519E+00  4.84553766577E+00  4.82998867349E+00