<PP_INFO>
Generated using Fritz-Haber code                                                
Author: Nicola Marzari Generation date: 11 Oct 2008
Info: FHI Troullier-Martins input
    1        The Pseudo was generated with a Scalar-Relativistic Calculation
nl pn  l   occ               Rcut            Rcut US             E pseu
s   0  0  2.00      0.00000000000      0.00000000000      0.00000000000
</PP_INFO>


<PP_HEADER>
   0                   Version Number
  He                   Element
   NC                  Norm - Conserving pseudopotential
    F                  Nonlinear Core Correction
SLA  PZ   NOGX NOGC    PZ   Exchange-Correlation functional
    2.00000000000      Z valence
    0.00000000000      Total energy
  0.0000000  0.0000000 Suggested cutoff for wfc and rho
   -1                  Max angular momentum component
  415                  Number of points in mesh
    1    0             Number of Wavefunctions, Number of Projectors
 Wavefunctions         nl  l   occ
                       s   0  2.00
</PP_HEADER>


<PP_MESH>
  <PP_R>
  3.12500000000E-03  3.20218750000E-03  3.28128153125E-03  3.36232918507E-03
  3.44537871594E-03  3.53047957023E-03  3.61768241561E-03  3.70703917128E-03
  3.79860303881E-03  3.89242853387E-03  3.98857151865E-03  4.08708923516E-03
  4.18804033927E-03  4.29148493565E-03  4.39748461356E-03  4.50610248352E-03
  4.61740321486E-03  4.73145307427E-03  4.84831996520E-03  4.96807346834E-03
  5.09078488301E-03  5.21652726962E-03  5.34537549318E-03  5.47740626786E-03
  5.61269820268E-03  5.75133184828E-03  5.89338974494E-03  6.03895647164E-03
  6.18811869649E-03  6.34096522829E-03  6.49758706943E-03  6.65807747004E-03
  6.82253198355E-03  6.99104852355E-03  7.16372742208E-03  7.34067148940E-03
  7.52198607519E-03  7.70777913125E-03  7.89816127579E-03  8.09324585930E-03
  8.29314903203E-03  8.49798981312E-03  8.70789016150E-03  8.92297504849E-03
  9.14337253219E-03  9.36921383374E-03  9.60063341543E-03  9.83776906079E-03
  1.00807619566E-02  1.03297567769E-02  1.05849017693E-02  1.08463488430E-02
  1.11142536594E-02  1.13887757248E-02  1.16700784852E-02  1.19583294238E-02
  1.22537001606E-02  1.25563665545E-02  1.28665088084E-02  1.31843115760E-02
  1.35099640719E-02  1.38436601845E-02  1.41855985911E-02  1.45359828763E-02
  1.48950216533E-02  1.52629286882E-02  1.56399230267E-02  1.60262291255E-02
  1.64220769849E-02  1.68277022864E-02  1.72433465329E-02  1.76692571923E-02
  1.81056878449E-02  1.85528983347E-02  1.90111549236E-02  1.94807304502E-02
  1.99619044923E-02  2.04549635333E-02  2.09602011325E-02  2.14779181005E-02
  2.20084226776E-02  2.25520307177E-02  2.31090658764E-02  2.36798598036E-02
  2.42647523407E-02  2.48640917236E-02  2.54782347891E-02  2.61075471884E-02
  2.67524036040E-02  2.74131879730E-02  2.80902937159E-02  2.87841239707E-02
  2.94950918328E-02  3.02236206011E-02  3.09701440299E-02  3.17351065874E-02
  3.25189637201E-02  3.33221821240E-02  3.41452400225E-02  3.49886274511E-02
  3.58528465491E-02  3.67384118589E-02  3.76458506318E-02  3.85757031424E-02
  3.95285230100E-02  4.05048775283E-02  4.15053480033E-02  4.25305300990E-02
  4.35810341924E-02  4.46574857370E-02  4.57605256347E-02  4.68908106178E-02
  4.80490136401E-02  4.92358242770E-02  5.04519491367E-02  5.16981122803E-02
  5.29750556537E-02  5.42835395283E-02  5.56243429547E-02  5.69982642256E-02
  5.84061213520E-02  5.98487525494E-02  6.13270167374E-02  6.28417940508E-02
  6.43939863638E-02  6.59845178270E-02  6.76143354174E-02  6.92844095022E-02
  7.09957344169E-02  7.27493290570E-02  7.45462374847E-02  7.63875295505E-02
  7.82743015304E-02  8.02076767782E-02  8.21888063947E-02  8.42188699126E-02
  8.62990759995E-02  8.84306631766E-02  9.06149005571E-02  9.28530886009E-02
  9.51465598893E-02  9.74966799186E-02  9.99048479126E-02  1.02372497656E-01
  1.04901098348E-01  1.07492155477E-01  1.10147211718E-01  1.12867847847E-01
  1.15655683689E-01  1.18512379076E-01  1.21439634839E-01  1.24439193820E-01
  1.27512841907E-01  1.30662409102E-01  1.33889770607E-01  1.37196847941E-01
  1.40585610085E-01  1.44058074654E-01  1.47616309098E-01  1.51262431933E-01
  1.54998614002E-01  1.58827079767E-01  1.62750108638E-01  1.66770036321E-01
  1.70889256218E-01  1.75110220847E-01  1.79435443302E-01  1.83867498751E-01
  1.88409025970E-01  1.93062728912E-01  1.97831378316E-01  2.02717813360E-01
  2.07724943350E-01  2.12855749451E-01  2.18113286463E-01  2.23500684638E-01
  2.29021151549E-01  2.34677973992E-01  2.40474519950E-01  2.46414240592E-01
  2.52500672335E-01  2.58737438942E-01  2.65128253684E-01  2.71676921550E-01
  2.78387341512E-01  2.85263508847E-01  2.92309517516E-01  2.99529562598E-01
  3.06927942794E-01  3.14509062981E-01  3.22277436837E-01  3.30237689527E-01
  3.38394560458E-01  3.46752906102E-01  3.55317702882E-01  3.64094050144E-01
  3.73087173182E-01  3.82302426360E-01  3.91745296291E-01  4.01421405109E-01
  4.11336513815E-01  4.21496525707E-01  4.31907489892E-01  4.42575604892E-01
  4.53507222333E-01  4.64708850724E-01  4.76187159337E-01  4.87948982173E-01
  5.00001322032E-01  5.12351354687E-01  5.25006433147E-01  5.37974092046E-01
  5.51262052120E-01  5.64878224807E-01  5.78830716960E-01  5.93127835669E-01
  6.07778093210E-01  6.22790212112E-01  6.38173130351E-01  6.53936006671E-01
  6.70088226036E-01  6.86639405219E-01  7.03599398528E-01  7.20978303671E-01
  7.38786467772E-01  7.57034493526E-01  7.75733245516E-01  7.94893856680E-01
  8.14527734940E-01  8.34646569993E-01  8.55262340272E-01  8.76387320077E-01
  8.98034086883E-01  9.20215528829E-01  9.42944852391E-01  9.66235590245E-01
  9.90101609324E-01  1.01455711907E+00  1.03961667992E+00  1.06529521191E+00
  1.09160800364E+00  1.11857072133E+00  1.14619941815E+00  1.17451054378E+00
  1.20352095421E+00  1.23324792178E+00  1.26370914545E+00  1.29492276134E+00
  1.32690735354E+00  1.35968196518E+00  1.39326610972E+00  1.42767978263E+00
  1.46294347326E+00  1.49907817705E+00  1.53610540802E+00  1.57404721160E+00
  1.61292617772E+00  1.65276545431E+00  1.69358876104E+00  1.73542040343E+00
  1.77828528740E+00  1.82220893400E+00  1.86721749467E+00  1.91333776679E+00
  1.96059720963E+00  2.00902396070E+00  2.05864685253E+00  2.10949542979E+00
  2.16159996691E+00  2.21499148609E+00  2.26970177579E+00  2.32576340966E+00
  2.38320976588E+00  2.44207504709E+00  2.50239430076E+00  2.56420343998E+00
  2.62753926495E+00  2.69243948480E+00  2.75894274007E+00  2.82708862575E+00
  2.89691771481E+00  2.96847158236E+00  3.04179283045E+00  3.11692511336E+00
  3.19391316366E+00  3.27280281880E+00  3.35364104843E+00  3.43647598232E+00
  3.52135693908E+00  3.60833445548E+00  3.69746031653E+00  3.78878758635E+00
  3.88237063973E+00  3.97826519453E+00  4.07652834484E+00  4.17721859496E+00
  4.28039589425E+00  4.38612167284E+00  4.49445887816E+00  4.60547201245E+00
  4.71922717116E+00  4.83579208228E+00  4.95523614672E+00  5.07763047954E+00
  5.20304795238E+00  5.33156323681E+00  5.46325284876E+00  5.59819519412E+00
  5.73647061542E+00  5.87816143962E+00  6.02335202718E+00  6.17212882225E+00
  6.32458040416E+00  6.48079754014E+00  6.64087323938E+00  6.80490280839E+00
  6.97298390776E+00  7.14521661028E+00  7.32170346056E+00  7.50254953603E+00
  7.68786250957E+00  7.87775271356E+00  8.07233320558E+00  8.27171983576E+00
  8.47603131570E+00  8.68538928920E+00  8.89991840465E+00  9.11974638924E+00
  9.34500412505E+00  9.57582572694E+00  9.81234862240E+00  1.00547136334E+01
  1.03030650601E+01  1.05575507671E+01  1.08183222710E+01  1.10855348311E+01
  1.13593475415E+01  1.16399234257E+01  1.19274295344E+01  1.22220370439E+01
  1.25239213588E+01  1.28332622164E+01  1.31502437932E+01  1.34750548148E+01
  1.38078886688E+01  1.41489435189E+01  1.44984224238E+01  1.48565334577E+01
  1.52234898341E+01  1.55995100330E+01  1.59848179308E+01  1.63796429337E+01
  1.67842201141E+01  1.71987903510E+01  1.76236004726E+01  1.80589034043E+01
  1.85049583184E+01  1.89620307889E+01  1.94303929493E+01  1.99103236552E+01
  2.04021086495E+01  2.09060407331E+01  2.14224199392E+01  2.19515537117E+01
  2.24937570884E+01  2.30493528885E+01  2.36186719048E+01  2.42020531009E+01
  2.47998438125E+01  2.54123999546E+01  2.60400862335E+01  2.66832763635E+01
  2.73423532897E+01  2.80177094159E+01  2.87097468385E+01  2.94188775854E+01
  3.01455238618E+01  3.08901183012E+01  3.16531042232E+01  3.24349358975E+01
  3.32360788142E+01  3.40570099609E+01  3.48982181069E+01  3.57602040942E+01
  3.66434811353E+01  3.75485751193E+01  3.84760249248E+01  3.94263827404E+01
  4.04002143941E+01  4.13980996896E+01  4.24206327520E+01  4.34684223810E+01
  4.45420924138E+01  4.56422820964E+01  4.67696464642E+01  4.79248567318E+01
  4.91086006931E+01  5.03215831302E+01  5.15645262335E+01  5.28381700315E+01
  5.41432728313E+01  5.54806116702E+01  5.68509827785E+01  5.82552020531E+01
  5.96941055438E+01  6.11685499507E+01  6.26794131345E+01  6.42275946389E+01
  6.58140162265E+01  6.74396224273E+01  6.91053811013E+01  7.08122840145E+01
  7.25613474296E+01  7.43536127112E+01  7.61901469451E+01
  </PP_R>
  <PP_RAB>
  7.62496463235E-05  7.81330125877E-05  8.00628979987E-05  8.20404515792E-05
  8.40668507332E-05  8.61433019463E-05  8.82710415044E-05  9.04513362296E-05
  9.26854842344E-05  9.49748156950E-05  9.73206936427E-05  9.97245147757E-05
  1.02187710291E-04  1.04711746735E-04  1.07298126879E-04  1.09948390613E-04
  1.12664115861E-04  1.15446919523E-04  1.18298458435E-04  1.21220430359E-04
  1.24214574988E-04  1.27282674991E-04  1.30426557063E-04  1.33648093022E-04
  1.36949200920E-04  1.40331846183E-04  1.43798042783E-04  1.47349854440E-04
  1.50989395845E-04  1.54718833922E-04  1.58540389120E-04  1.62456336731E-04
  1.66469008249E-04  1.70580792752E-04  1.74794138333E-04  1.79111553550E-04
  1.83535608923E-04  1.88068938463E-04  1.92714241243E-04  1.97474283002E-04
  2.02351897792E-04  2.07349989668E-04  2.12471534412E-04  2.17719581312E-04
  2.23097254971E-04  2.28607757169E-04  2.34254368771E-04  2.40040451679E-04
  2.45969450836E-04  2.52044896271E-04  2.58270405209E-04  2.64649684218E-04
  2.71186531418E-04  2.77884838744E-04  2.84748594261E-04  2.91781884539E-04
  2.98988897088E-04  3.06373922846E-04  3.13941358740E-04  3.21695710301E-04
  3.29641594345E-04  3.37783741726E-04  3.46127000146E-04  3.54676337050E-04
  3.63436842575E-04  3.72413732587E-04  3.81612351781E-04  3.91038176870E-04
  4.00696819839E-04  4.10594031289E-04  4.20735703862E-04  4.31127875747E-04
  4.41776734278E-04  4.52688619615E-04  4.63870028520E-04  4.75327618224E-04
  4.87068210394E-04  4.99098795191E-04  5.11426535432E-04  5.24058770857E-04
  5.37003022497E-04  5.50266997153E-04  5.63858591983E-04  5.77785899205E-04
  5.92057210915E-04  6.06681024025E-04  6.21666045318E-04  6.37021196638E-04
  6.52755620194E-04  6.68878684013E-04  6.85399987508E-04  7.02329367200E-04
  7.19676902570E-04  7.37452922063E-04  7.55668009238E-04  7.74333009066E-04
  7.93459034390E-04  8.13057472540E-04  8.33139992111E-04  8.53718549917E-04
  8.74805398099E-04  8.96413091433E-04  9.18554494791E-04  9.41242790812E-04
  9.64491487745E-04  9.88314427493E-04  1.01272579385E-03  1.03774012096E-03
  1.06337230195E-03  1.08963759781E-03  1.11655164647E-03  1.14413047214E-03
  1.17239049480E-03  1.20134854002E-03  1.23102184896E-03  1.26142808863E-03
  1.29258536242E-03  1.32451222087E-03  1.35722767273E-03  1.39075119624E-03
  1.42510275079E-03  1.46030278874E-03  1.49637226762E-03  1.53333266263E-03
  1.57120597939E-03  1.61001476709E-03  1.64978213183E-03  1.69053175049E-03
  1.73228788473E-03  1.77507539548E-03  1.81891975775E-03  1.86384707576E-03
  1.90988409853E-03  1.95705823577E-03  2.00539757419E-03  2.05493089427E-03
  2.10568768736E-03  2.15769817324E-03  2.21099331812E-03  2.26560485308E-03
  2.32156529295E-03  2.37890795568E-03  2.43766698219E-03  2.49787735665E-03
  2.55957492736E-03  2.62279642806E-03  2.68757949984E-03  2.75396271348E-03
  2.82198559251E-03  2.89168863664E-03  2.96311334597E-03  3.03630224561E-03
  3.11129891108E-03  3.18814799418E-03  3.26689524964E-03  3.34758756230E-03
  3.43027297509E-03  3.51500071758E-03  3.60182123530E-03  3.69078621981E-03
  3.78194863944E-03  3.87536277084E-03  3.97108423128E-03  4.06917001179E-03
  4.16967851108E-03  4.27266957030E-03  4.37820450869E-03  4.48634616006E-03
  4.59715891021E-03  4.71070873529E-03  4.82706324105E-03  4.94629170311E-03
  5.06846510817E-03  5.19365619635E-03  5.32193950440E-03  5.45339141015E-03
  5.58809017798E-03  5.72611600538E-03  5.86755107071E-03  6.01247958216E-03
  6.16098782784E-03  6.31316422719E-03  6.46909938360E-03  6.62888613837E-03
  6.79261962599E-03  6.96039733075E-03  7.13231914482E-03  7.30848742770E-03
  7.48900706717E-03  7.67398554172E-03  7.86353298460E-03  8.05776224932E-03
  8.25678897688E-03  8.46073166461E-03  8.66971173673E-03  8.88385361662E-03
  9.10328480096E-03  9.32813593554E-03  9.55854089315E-03  9.79463685321E-03
  1.00365643835E-02  1.02844675238E-02  1.05384938716E-02  1.07987946702E-02
  1.10655248986E-02  1.13388433636E-02  1.16189127946E-02  1.19058999407E-02
  1.21999756692E-02  1.25013150682E-02  1.28100975504E-02  1.31265069599E-02
  1.34507316818E-02  1.37829647544E-02  1.41234039838E-02  1.44722520622E-02
  1.48297166881E-02  1.51960106903E-02  1.55713521544E-02  1.59559645526E-02
  1.63500768771E-02  1.67539237759E-02  1.71677456932E-02  1.75917890118E-02
  1.80263062004E-02  1.84715559635E-02  1.89278033958E-02  1.93953201397E-02
  1.98743845472E-02  2.03652818455E-02  2.08683043071E-02  2.13837514235E-02
  2.19119300836E-02  2.24531547567E-02  2.30077476792E-02  2.35760390468E-02
  2.41583672113E-02  2.47550788814E-02  2.53665293298E-02  2.59930826042E-02
  2.66351117446E-02  2.72929990047E-02  2.79671360801E-02  2.86579243412E-02
  2.93657750725E-02  3.00911097168E-02  3.08343601268E-02  3.15959688219E-02
  3.23763892518E-02  3.31760860663E-02  3.39955353922E-02  3.48352251163E-02
  3.56956551767E-02  3.65773378596E-02  3.74807981047E-02  3.84065738179E-02
  3.93552161912E-02  4.03272900311E-02  4.13233740949E-02  4.23440614350E-02
  4.33899597525E-02  4.44616917584E-02  4.55598955448E-02  4.66852249648E-02
  4.78383500214E-02  4.90199572669E-02  5.02307502114E-02  5.14714497416E-02
  5.27427945503E-02  5.40455415756E-02  5.53804664526E-02  5.67483639739E-02
  5.81500485641E-02  5.95863547636E-02  6.10581377263E-02  6.25662737281E-02
  6.41116606892E-02  6.56952187082E-02  6.73178906103E-02  6.89806425084E-02
  7.06844643784E-02  7.24303706485E-02  7.42194008035E-02  7.60526200034E-02
  7.79311197175E-02  7.98560183745E-02  8.18284620283E-02  8.38496250404E-02
  8.59207107789E-02  8.80429523352E-02  9.02176132578E-02  9.24459883053E-02
  9.47294042165E-02  9.70692205006E-02  9.94668302470E-02  1.01923660954E-01
  1.04441175380E-01  1.07020872412E-01  1.09664287960E-01  1.12372995873E-01
  1.15148608871E-01  1.17992779510E-01  1.20907201164E-01  1.23893609032E-01
  1.26953781176E-01  1.30089539571E-01  1.33302751198E-01  1.36595329153E-01
  1.39969233783E-01  1.43426473857E-01  1.46969107761E-01  1.50599244723E-01
  1.54319046068E-01  1.58130726506E-01  1.62036555450E-01  1.66038858370E-01
  1.70140018172E-01  1.74342476621E-01  1.78648735793E-01  1.83061359567E-01
  1.87582975148E-01  1.92216274635E-01  1.96964016618E-01  2.01829027829E-01
  2.06814204816E-01  2.11922515675E-01  2.17157001812E-01  2.22520779757E-01
  2.28017043017E-01  2.33649063979E-01  2.39420195860E-01  2.45333874697E-01
  2.51393621402E-01  2.57603043851E-01  2.63965839034E-01  2.70485795258E-01
  2.77166794401E-01  2.84012814223E-01  2.91027930734E-01  2.98216320623E-01
  3.05582263743E-01  3.13130145657E-01  3.20864460255E-01  3.28789812423E-01
  3.36910920790E-01  3.45232620534E-01  3.53759866261E-01  3.62497734957E-01
  3.71451429011E-01  3.80626279307E-01  3.90027748406E-01  3.99661433792E-01
  4.09533071207E-01  4.19648538065E-01  4.30013856956E-01  4.40635199222E-01
  4.51518888643E-01  4.62671405193E-01  4.74099388901E-01  4.85809643807E-01
  4.97809142009E-01  5.10105027816E-01  5.22704622003E-01  5.35615426167E-01
  5.48845127193E-01  5.62401601835E-01  5.76292921400E-01  5.90527356559E-01
  6.05113382266E-01  6.20059682808E-01  6.35375156973E-01  6.51068923350E-01
  6.67150325757E-01  6.83628938803E-01  7.00514573592E-01  7.17817283559E-01
  7.35547370463E-01  7.53715390514E-01  7.72332160660E-01  7.91408765028E-01
  8.10956561524E-01  8.30987188594E-01  8.51512572152E-01  8.72544932684E-01
  8.94096792521E-01  9.16180983297E-01  9.38810653584E-01  9.61999276728E-01
  9.85760658863E-01  1.01010894714E+00  1.03505863813E+00  1.06062458649E+00
  1.08682201378E+00  1.11366651752E+00  1.14117408050E+00  1.16936108029E+00
  1.19824429897E+00  1.22784093316E+00  1.25816860421E+00  1.28924536873E+00
  1.32108972934E+00  1.35372064565E+00  1.38715754560E+00  1.42142033698E+00
  1.45652941930E+00  1.49250569596E+00  1.52937058665E+00  1.56714604014E+00
  1.60585454733E+00  1.64551915465E+00  1.68616347777E+00  1.72781171567E+00
  1.77048866505E+00  1.81421973507E+00  1.85903096253E+00
  </PP_RAB>
</PP_MESH>


<PP_LOCAL>
 -1.57213338711E+01 -1.57213342831E+01 -1.57213345699E+01 -1.57213347287E+01
 -1.57213347566E+01 -1.57213346502E+01 -1.57213344063E+01 -1.57213340210E+01
 -1.57213334904E+01 -1.57213328102E+01 -1.57213319760E+01 -1.57213309828E+01
 -1.57213298256E+01 -1.57213284988E+01 -1.57213269967E+01 -1.57213253131E+01
 -1.57213234415E+01 -1.57213213748E+01 -1.57213191058E+01 -1.57213166266E+01
 -1.57213139292E+01 -1.57213110046E+01 -1.57213078439E+01 -1.57213044372E+01
 -1.57213007743E+01 -1.57212968443E+01 -1.57212926360E+01 -1.57212881371E+01
 -1.57212833351E+01 -1.57212782165E+01 -1.57212727672E+01 -1.57212669723E+01
 -1.57212608162E+01 -1.57212542823E+01 -1.57212473532E+01 -1.57212400107E+01
 -1.57212322354E+01 -1.57212240070E+01 -1.57212153042E+01 -1.57212061044E+01
 -1.57211963839E+01 -1.57211861177E+01 -1.57211752797E+01 -1.57211638421E+01
 -1.57211517759E+01 -1.57211390504E+01 -1.57211256334E+01 -1.57211114911E+01
 -1.57210965876E+01 -1.57210808855E+01 -1.57210643451E+01 -1.57210469249E+01
 -1.57210285811E+01 -1.57210092674E+01 -1.57209889354E+01 -1.57209675339E+01
 -1.57209450091E+01 -1.57209213044E+01 -1.57208963601E+01 -1.57208701133E+01
 -1.57208424979E+01 -1.57208134442E+01 -1.57207828787E+01 -1.57207507241E+01
 -1.57207168989E+01 -1.57206813171E+01 -1.57206438883E+01 -1.57206045170E+01
 -1.57205631026E+01 -1.57205195391E+01 -1.57204737145E+01 -1.57204255109E+01
 -1.57203748037E+01 -1.57203214616E+01 -1.57202653460E+01 -1.57202063104E+01
 -1.57201442003E+01 -1.57200788526E+01 -1.57200100946E+01 -1.57199377444E+01
 -1.57198616092E+01 -1.57197814856E+01 -1.57196971581E+01 -1.57196083991E+01
 -1.57195149675E+01 -1.57194166082E+01 -1.57193130513E+01 -1.57192040104E+01
 -1.57190891827E+01 -1.57189682467E+01 -1.57188408619E+01 -1.57187066668E+01
 -1.57185652782E+01 -1.57184162888E+01 -1.57182592667E+01 -1.57180937524E+01
 -1.57179192579E+01 -1.57177352642E+01 -1.57175412192E+01 -1.57173365352E+01
 -1.57171205865E+01 -1.57168927065E+01 -1.57166521847E+01 -1.57163982635E+01
 -1.57161301345E+01 -1.57158469349E+01 -1.57155477434E+01 -1.57152315751E+01
 -1.57148973775E+01 -1.57145440245E+01 -1.57141703110E+01 -1.57137749466E+01
 -1.57133565486E+01 -1.57129136349E+01 -1.57124446158E+01 -1.57119477854E+01
 -1.57114213118E+01 -1.57108632273E+01 -1.57102714165E+01 -1.57096436044E+01
 -1.57089773431E+01 -1.57082699969E+01 -1.57075187270E+01 -1.57067204735E+01
 -1.57058719372E+01 -1.57049695585E+01 -1.57040094956E+01 -1.57029875993E+01
 -1.57018993872E+01 -1.57007400140E+01 -1.56995042399E+01 -1.56981863962E+01
 -1.56967803476E+01 -1.56952794507E+01 -1.56936765095E+01 -1.56919637263E+01
 -1.56901326483E+01 -1.56881741094E+01 -1.56860781667E+01 -1.56838340317E+01
 -1.56814299945E+01 -1.56788533418E+01 -1.56760902676E+01 -1.56731257759E+01
 -1.56699435746E+01 -1.56665259600E+01 -1.56628536920E+01 -1.56589058573E+01
 -1.56546597215E+01 -1.56500905684E+01 -1.56451715254E+01 -1.56398733744E+01
 -1.56341643470E+01 -1.56280099022E+01 -1.56213724867E+01 -1.56142112752E+01
 -1.56064818903E+01 -1.55981361008E+01 -1.55891214961E+01 -1.55793811363E+01
 -1.55688531767E+01 -1.55574704646E+01 -1.55451601083E+01 -1.55318430164E+01
 -1.55174334063E+01 -1.55018382824E+01 -1.54849568815E+01 -1.54666800871E+01
 -1.54468898112E+01 -1.54254583455E+01 -1.54022476816E+01 -1.53771088042E+01
 -1.53498809576E+01 -1.53203908916E+01 -1.52884520894E+01 -1.52538639851E+01
 -1.52164111784E+01 -1.51758626556E+01 -1.51319710283E+01 -1.50844718054E+01
 -1.50330827125E+01 -1.49775030814E+01 -1.49174133306E+01 -1.48524745640E+01
 -1.47823283206E+01 -1.47065965083E+01 -1.46248815638E+01 -1.45367668842E+01
 -1.44418175806E+01 -1.43395816113E+01 -1.42295913570E+01 -1.41113657064E+01
 -1.39844127251E+01 -1.38482329879E+01 -1.37023236562E+01 -1.35461833854E+01
 -1.33793181513E+01 -1.32012480781E+01 -1.30115153524E+01 -1.28096932954E+01
 -1.25953966569E+01 -1.23682931764E+01 -1.21281164321E+01 -1.18746799711E+01
 -1.16078926748E+01 -1.13277752643E+01 -1.10344777983E+01 -1.07282979467E+01
 -1.04096997480E+01 -1.00793324703E+01 -9.73804910317E+00 -9.38692389924E+00
 -9.02726827600E+00 -8.66064426905E+00 -8.28887460893E+00 -7.91404837010E+00
 -7.53852101716E+00 -7.16490754868E+00 -6.79606731159E+00 -6.43507892645E+00
 -6.08520362090E+00 -5.74983511275E+00 -5.43243401299E+00 -5.13644454474E+00
 -4.86512916680E+00 -4.62159014318E+00 -4.40855437500E+00 -4.22813259344E+00
 -4.08165924564E+00 -3.96946472574E+00 -3.89063036028E+00 -3.84274085547E+00
 -3.82166080010E+00 -3.82137937432E+00 -3.83399224267E+00 -3.84992336531E+00
 -3.85853381507E+00 -3.84932151386E+00 -3.81398787610E+00 -3.74973988172E+00
 -3.66431904736E+00 -3.57599204387E+00 -3.48979412889E+00 -3.40567398155E+00
 -3.32358151805E+00 -3.24346786186E+00 -3.16528531459E+00 -3.08898732760E+00
 -3.01452847429E+00 -2.94186442304E+00 -2.87095191084E+00 -2.80174871752E+00
 -2.73421364059E+00 -2.66830647077E+00 -2.60398796796E+00 -2.54121983796E+00
 -2.47996470963E+00 -2.42018611265E+00 -2.36184845579E+00 -2.30491700575E+00
 -2.24935786645E+00 -2.19513795886E+00 -2.14222500133E+00 -2.09058749032E+00
 -2.04019468168E+00 -1.99101657235E+00 -1.94302388245E+00 -1.89618803791E+00
 -1.85048115342E+00 -1.80587601583E+00 -1.76234606795E+00 -1.71986539275E+00
 -1.67840869791E+00 -1.63795130079E+00 -1.59846911368E+00 -1.55993862953E+00
 -1.52233690790E+00 -1.48564156134E+00 -1.44983074201E+00 -1.41488312873E+00
 -1.38077791425E+00 -1.34749479286E+00 -1.31501394834E+00 -1.28331604210E+00
 -1.25238220172E+00 -1.22219400968E+00 -1.19273349242E+00 -1.16398310961E+00
 -1.13592574374E+00 -1.10854468990E+00 -1.08182364585E+00 -1.05574670230E+00
 -1.03029833346E+00 -1.00546338778E+00 -9.81227078935E-01 -9.57574977003E-01
 -9.34492999905E-01 -9.11967405002E-01 -8.89984780913E-01 -8.68532039537E-01
 -8.47596408253E-01 -8.27165422321E-01 -8.07226917460E-01 -7.87769022602E-01
 -7.68780152827E-01 -7.50249002466E-01 -7.32164538368E-01 -7.14515993333E-01
 -6.97292859699E-01 -6.80484883086E-01 -6.64082056296E-01 -6.48074613346E-01
 -6.32453023662E-01 -6.17207986398E-01 -6.02330424903E-01 -5.87811481314E-01
 -5.73642511285E-01 -5.59815078838E-01 -5.46320951340E-01 -5.33152094603E-01
 -5.20300668101E-01 -5.07759020300E-01 -4.95519684102E-01 -4.83575372404E-01
 -4.71918973752E-01 -4.60543548114E-01 -4.49442322742E-01 -4.38608688145E-01
 -4.28036194150E-01 -4.17718546062E-01 -4.07649600919E-01 -3.97823363832E-01
 -3.88233984417E-01 -3.78875753311E-01 -3.69743098771E-01 -3.60830583362E-01
 -3.52132900714E-01 -3.43644872367E-01 -3.35361444683E-01 -3.27277685843E-01
 -3.19388782905E-01 -3.11690038943E-01 -3.04176870248E-01 -2.96844803599E-01
 -2.89689473601E-01 -2.82706620085E-01 -2.75892085571E-01 -2.69241812795E-01
 -2.62751842291E-01 -2.56418310033E-01 -2.50237445138E-01 -2.44205567618E-01
 -2.38319086189E-01 -2.32574496135E-01 -2.26968377217E-01 -2.21497391644E-01
 -2.16158282076E-01 -2.10947869695E-01 -2.05863052303E-01 -2.00900802482E-01
 -1.96058165787E-01 -1.91332258990E-01 -1.86720268361E-01 -1.82219447996E-01
 -1.77827118177E-01 -1.73540663781E-01 -1.69357532723E-01 -1.65275234433E-01
 -1.61291338375E-01 -1.57403472602E-01 -1.53609322340E-01 -1.49906628613E-01
 -1.46293186897E-01 -1.42766845805E-01 -1.39325505812E-01 -1.35967117997E-01
 -1.32689682831E-01 -1.29491248981E-01 -1.26369912151E-01 -1.23323813947E-01
 -1.20351140770E-01 -1.17450122738E-01 -1.14619032632E-01 -1.11856184866E-01
 -1.09159934484E-01 -1.06528676182E-01 -1.03960843352E-01 -1.01454907145E-01
 -9.90093755686E-02 -9.66227925916E-02 -9.42937372808E-02 -9.20208229538E-02
 -8.98026963539E-02 -8.76380368439E-02 -8.55255556200E-02 -8.34639949449E-02
 -8.14521273982E-02 -7.94887551461E-02 -7.75727092281E-02 -7.57028488613E-02
 -7.38780607605E-02 -7.20972584761E-02 -7.03593817470E-02 -6.86633958690E-02
 -6.70082910793E-02 -6.53930819550E-02 -6.38168068264E-02 -6.22785272045E-02
 -6.07773272221E-02 -5.93123130888E-02 -5.78826125586E-02 -5.64873744107E-02
 -5.51257679425E-02 -5.37969824753E-02 -5.25002268716E-02
</PP_LOCAL>


<PP_NONLOCAL>
  <PP_DIJ>
    0                  Number of nonzero Dij
  </PP_DIJ>
</PP_NONLOCAL>


<PP_PSWFC>
s     0  2.00          Wavefunction
  9.27509159396E-03  9.50418635633E-03  9.73893975933E-03  9.97949157138E-03
  1.02259847324E-02  1.04785653712E-02  1.07373839350E-02  1.10025944082E-02
  1.12743546018E-02  1.15528262196E-02  1.18381749538E-02  1.21305705831E-02
  1.24301870733E-02  1.27372026801E-02  1.30518000545E-02  1.33741663510E-02
  1.37044933378E-02  1.40429775106E-02  1.43898202082E-02  1.47452277318E-02
  1.51094114664E-02  1.54825880054E-02  1.58649792788E-02  1.62568126834E-02
  1.66583212171E-02  1.70697436160E-02  1.74913244946E-02  1.79233144899E-02
  1.83659704085E-02  1.88195553776E-02  1.92843389991E-02  1.97605975078E-02
  2.02486139335E-02  2.07486782661E-02  2.12610876259E-02  2.17861464367E-02
  2.23241666037E-02  2.28754676957E-02  2.34403771306E-02  2.40192303669E-02
  2.46123710979E-02  2.52201514515E-02  2.58429321947E-02  2.64810829422E-02
  2.71349823700E-02  2.78050184347E-02  2.84915885964E-02  2.91951000480E-02
  2.99159699490E-02  3.06546256645E-02  3.14115050106E-02  3.21870565035E-02
  3.29817396160E-02  3.37960250387E-02  3.46303949466E-02  3.54853432728E-02
  3.63613759869E-02  3.72590113799E-02  3.81787803553E-02  3.91212267266E-02
  4.00869075199E-02  4.10763932843E-02  4.20902684078E-02  4.31291314400E-02
  4.41935954209E-02  4.52842882168E-02  4.64018528622E-02  4.75469479093E-02
  4.87202477827E-02  4.99224431424E-02  5.11542412522E-02  5.24163663553E-02
  5.37095600567E-02  5.50345817119E-02  5.63922088225E-02  5.77832374381E-02
  5.92084825642E-02  6.06687785775E-02  6.21649796464E-02  6.36979601579E-02
  6.52686151504E-02  6.68778607520E-02  6.85266346242E-02  7.02158964109E-02
  7.19466281918E-02  7.37198349411E-02  7.55365449887E-02  7.73978104872E-02
  7.93047078794E-02  8.12583383709E-02  8.32598284024E-02  8.53103301252E-02
  8.74110218751E-02  8.95631086481E-02  9.17678225730E-02  9.40264233829E-02
  9.63401988826E-02  9.87104654117E-02  1.01138568302E-01  1.03625882326E-01
  1.06173812140E-01  1.08783792710E-01  1.11457289735E-01  1.14195800043E-01
  1.17000851983E-01  1.19874005785E-01  1.22816853912E-01  1.25831021374E-01
  1.28918166020E-01  1.32079978803E-01  1.35318184002E-01  1.38634539409E-01
  1.42030836472E-01  1.45508900396E-01  1.49070590178E-01  1.52717798600E-01
  1.56452452145E-01  1.60276510851E-01  1.64191968084E-01  1.68200850226E-01
  1.72305216279E-01  1.76507157355E-01  1.80808796069E-01  1.85212285805E-01
  1.89719809854E-01  1.94333580414E-01  1.99055837428E-01  2.03888847268E-01
  2.08834901225E-01  2.13896313814E-01  2.19075420858E-01  2.24374577354E-01
  2.29796155079E-01  2.35342539939E-01  2.41016129020E-01  2.46819327334E-01
  2.52754544229E-01  2.58824189433E-01  2.65030668710E-01  2.71376379101E-01
  2.77863703713E-01  2.84495006021E-01  2.91272623653E-01  2.98198861624E-01
  3.05275984970E-01  3.12506210735E-01  3.19891699294E-01  3.27434544929E-01
  3.35136765635E-01  3.43000292094E-01  3.51026955760E-01  3.59218476005E-01
  3.67576446266E-01  3.76102319122E-01  3.84797390252E-01  3.93662781194E-01
  4.02699420854E-01  4.11908025676E-01  4.21289078424E-01  4.30842805491E-01
  4.40569152678E-01  4.50467759363E-01  4.60537931002E-01  4.70778609904E-01
  4.81188344204E-01  4.91765255008E-01  5.02507001647E-01  5.13410745018E-01
  5.24473108988E-01  5.35690139871E-01  5.47057263972E-01  5.58569243263E-01
  5.70220129248E-01  5.82003215111E-01  5.93910986308E-01  6.05935069772E-01
  6.18066181961E-01  6.30294076073E-01  6.42607488753E-01  6.54994086760E-01
  6.67440414100E-01  6.79931840248E-01  6.92452510189E-01  7.04985297094E-01
  7.17511758623E-01  7.30012097931E-01  7.42465130624E-01  7.54848259060E-01
  7.67137455540E-01  7.79307256095E-01  7.91330766725E-01  8.03179684119E-01
  8.14824332978E-01  8.26233722236E-01  8.37375622510E-01  8.48216667202E-01
  8.58722479631E-01  8.68857828548E-01  8.78586814201E-01  8.87873086894E-01
  8.96680099611E-01  9.04971395792E-01  9.12710932708E-01  9.19863440076E-01
  9.26394812578E-01  9.32272533791E-01  9.37466127683E-01  9.41947632302E-01
  9.45692088602E-01  9.48678035506E-01  9.50888000394E-01  9.52308972202E-01
  9.52932842402E-01  9.52756797256E-01  9.51783643109E-01  9.50022045165E-01
  9.47486659290E-01  9.44198136081E-01  9.40182976829E-01  9.35473222263E-01
  9.30105957255E-01  9.24122618148E-01  9.17568094292E-01  9.10489621973E-01
  9.02935477532E-01  8.94953487472E-01  8.86589387306E-01  8.77885078219E-01
  8.68876851971E-01  8.59593679999E-01  8.50055692227E-01  8.40273003223E-01
  8.30245074749E-01  8.19960827880E-01  8.09399723389E-01  7.98533998069E-01
  7.87332149898E-01  7.75763568464E-01  7.63803856808E-01  7.51439818653E-01
  7.38672201258E-01  7.25513538371E-01  7.11981185533E-01  6.98092658535E-01