<PP_INFO>
Generated using the fhi98pp code, written by Martin Fuchs
Author: Brandon Wood, MIT    Generation date: 2006
Automatically converted from original format
    2        The Pseudo was generated with a Full-Relativistic Calculation
nl pn  l   occ               Rcut            Rcut US             E pseu
5S  0  0  2.00      0.00000000000      0.00000000000      0.00000000000
5P  0  1  5.00      0.00000000000      0.00000000000      0.00000000000
5D  0  2  0.00      0.00000000000      0.00000000000      0.00000000000
</PP_INFO>


<PP_HEADER>
   0                   Version Number
  I                    Element
   NC                  Norm - Conserving pseudopotential
    F                  Nonlinear Core Correction
SLA  PW   PBE  PBE     PBE  Exchange-Correlation functional
    7.00000000000      Z valence
    0.00000000000      Total energy
  0.0000000  0.0000000 Suggested cutoff for wfc and rho
    2                  Max angular momentum component
  551                  Number of points in mesh
    3    2             Number of Wavefunctions, Number of Projectors
 Wavefunctions         nl  l   occ
                       5S  0  2.00
                       5P  1  5.00
                       5D  2  0.00
</PP_HEADER>


<PP_MESH>
  <PP_R>
  1.17924978212E-04  1.20837738850E-04  1.23822445014E-04  1.26880873765E-04
  1.30014846062E-04  1.33226227838E-04  1.36516931116E-04  1.39888915147E-04
  1.43344187574E-04  1.46884805631E-04  1.50512877364E-04  1.54230562891E-04
  1.58040075680E-04  1.61943683878E-04  1.65943711651E-04  1.70042540573E-04
  1.74242611046E-04  1.78546423746E-04  1.82956541119E-04  1.87475588902E-04
  1.92106257690E-04  1.96851304534E-04  2.01713554585E-04  2.06695902776E-04
  2.11801315546E-04  2.17032832603E-04  2.22393568738E-04  2.27886715677E-04
  2.33515543983E-04  2.39283405000E-04  2.45193732854E-04  2.51250046491E-04
  2.57455951777E-04  2.63815143644E-04  2.70331408287E-04  2.77008625423E-04
  2.83850770596E-04  2.90861917548E-04  2.98046240643E-04  3.05408017352E-04
  3.12951630800E-04  3.20681572374E-04  3.28602444402E-04  3.36718962887E-04
  3.45035960320E-04  3.53558388555E-04  3.62291321755E-04  3.71239959418E-04
  3.80409629469E-04  3.89805791434E-04  3.99434039689E-04  4.09300106792E-04
  4.19409866897E-04  4.29769339249E-04  4.40384691770E-04  4.51262244729E-04
  4.62408474507E-04  4.73830017454E-04  4.85533673836E-04  4.97526411888E-04
  5.09815371961E-04  5.22407870773E-04  5.35311405765E-04  5.48533659569E-04
  5.62082504575E-04  5.75966007624E-04  5.90192434808E-04  6.04770256393E-04
  6.19708151863E-04  6.35015015082E-04  6.50699959599E-04  6.66772324064E-04
  6.83241677795E-04  7.00117826473E-04  7.17410817981E-04  7.35130948385E-04
  7.53288768065E-04  7.71895087996E-04  7.90960986188E-04  8.10497814276E-04
  8.30517204284E-04  8.51031075546E-04  8.72051641808E-04  8.93591418494E-04
  9.15663230162E-04  9.38280218139E-04  9.61455848341E-04  9.85203919297E-04
  1.00953857036E-03  1.03447429013E-03  1.06002592506E-03  1.08620868834E-03
  1.11303816892E-03  1.14053034077E-03  1.16870157246E-03  1.19756863683E-03
  1.22714872105E-03  1.25745943677E-03  1.28851883069E-03  1.32034539524E-03
  1.35295807962E-03  1.38637630110E-03  1.42061995651E-03  1.45570943419E-03
  1.49166562604E-03  1.52850993999E-03  1.56626431277E-03  1.60495122294E-03
  1.64459370428E-03  1.68521535950E-03  1.72684037432E-03  1.76949353183E-03
  1.81320022728E-03  1.85798648317E-03  1.90387896478E-03  1.95090499601E-03
  1.99909257566E-03  2.04847039411E-03  2.09906785041E-03  2.15091506975E-03
  2.20404292142E-03  2.25848303719E-03  2.31426783013E-03  2.37143051392E-03
  2.43000512263E-03  2.49002653098E-03  2.55153047506E-03  2.61455357370E-03
  2.67913335019E-03  2.74530825464E-03  2.81311768691E-03  2.88260202002E-03
  2.95380262422E-03  3.02676189159E-03  3.10152326133E-03  3.17813124558E-03
  3.25663145592E-03  3.33707063056E-03  3.41949666214E-03  3.50395862626E-03
  3.59050681069E-03  3.67919274531E-03  3.77006923280E-03  3.86319038008E-03
  3.95861163048E-03  4.05638979685E-03  4.15658309526E-03  4.25925117975E-03
  4.36445517785E-03  4.47225772690E-03  4.58272301141E-03  4.69591680126E-03
  4.81190649084E-03  4.93076113921E-03  5.05255151118E-03  5.17735011946E-03
  5.30523126784E-03  5.43627109541E-03  5.57054762192E-03  5.70814079421E-03
  5.84913253381E-03  5.99360678573E-03  6.14164956843E-03  6.29334902503E-03
  6.44879547580E-03  6.60808147193E-03  6.77130185064E-03  6.93855379163E-03
  7.10993687496E-03  7.28555314033E-03  7.46550714781E-03  7.64990604015E-03
  7.83885960652E-03  8.03248034789E-03  8.23088354402E-03  8.43418732211E-03
  8.64251272710E-03  8.85598379374E-03  9.07472762050E-03  9.29887444514E-03
  9.52855772234E-03  9.76391420313E-03  1.00050840163E-02  1.02522107518E-02
  1.05054415463E-02  1.07649271709E-02  1.10308221204E-02  1.13032847061E-02
  1.15824771492E-02  1.18685656780E-02  1.21617206266E-02  1.24621165365E-02
  1.27699322603E-02  1.30853510680E-02  1.34085607569E-02  1.37397537627E-02
  1.40791272740E-02  1.44268833505E-02  1.47832290423E-02  1.51483765141E-02
  1.55225431708E-02  1.59059517873E-02  1.62988306411E-02  1.67014136482E-02
  1.71139405022E-02  1.75366568173E-02  1.79698142744E-02  1.84136707710E-02
  1.88684905745E-02  1.93345444799E-02  1.98121099709E-02  2.03014713848E-02
  2.08029200824E-02  2.13167546210E-02  2.18432809323E-02  2.23828125045E-02
  2.29356705691E-02  2.35021842921E-02  2.40826909697E-02  2.46775362296E-02
  2.52870742363E-02  2.59116679026E-02  2.65516891048E-02  2.72075189049E-02
  2.78795477772E-02  2.85681758405E-02  2.92738130969E-02  2.99968796753E-02
  3.07378060821E-02  3.14970334570E-02  3.22750138362E-02  3.30722104210E-02
  3.38890978538E-02  3.47261625010E-02  3.55839027420E-02  3.64628292665E-02
  3.73634653780E-02  3.82863473060E-02  3.92320245246E-02  4.02010600801E-02
  4.11940309263E-02  4.22115282675E-02  4.32541579111E-02  4.43225406278E-02
  4.54173125215E-02  4.65391254079E-02  4.76886472027E-02  4.88665623191E-02
  5.00735720756E-02  5.13103951130E-02  5.25777678228E-02  5.38764447856E-02
  5.52071992199E-02  5.65708234432E-02  5.79681293428E-02  5.93999488603E-02
  6.08671344858E-02  6.23705597665E-02  6.39111198260E-02  6.54897318976E-02
  6.71073358704E-02  6.87648948490E-02  7.04633957266E-02  7.22038497728E-02
  7.39872932358E-02  7.58147879592E-02  7.76874220141E-02  7.96063103475E-02
  8.15725954451E-02  8.35874480128E-02  8.56520676725E-02  8.77676836772E-02
  8.99355556426E-02  9.21569742970E-02  9.44332622498E-02  9.67657747789E-02
  9.91559006381E-02  1.01605062883E-01  1.04114719720E-01  1.06686365371E-01
  1.09321530968E-01  1.12021785462E-01  1.14788736554E-01  1.17624031659E-01
  1.20529358882E-01  1.23506448025E-01  1.26557071614E-01  1.29683045960E-01
  1.32886232235E-01  1.36168537582E-01  1.39531916252E-01  1.42978370765E-01
  1.46509953105E-01  1.50128765937E-01  1.53836963867E-01  1.57636754715E-01
  1.61530400838E-01  1.65520220472E-01  1.69608589113E-01  1.73797940934E-01
  1.78090770231E-01  1.82489632909E-01  1.86997148005E-01  1.91615999248E-01
  1.96348936651E-01  2.01198778157E-01  2.06168411311E-01  2.11260794980E-01
  2.16478961117E-01  2.21826016562E-01  2.27305144896E-01  2.32919608336E-01
  2.38672749674E-01  2.44567994271E-01  2.50608852092E-01  2.56798919802E-01
  2.63141882903E-01  2.69641517928E-01  2.76301694691E-01  2.83126378594E-01
  2.90119632980E-01  2.97285621560E-01  3.04628610889E-01  3.12152972906E-01
  3.19863187538E-01  3.27763845366E-01  3.35859650358E-01  3.44155422672E-01
  3.52656101524E-01  3.61366748130E-01  3.70292548717E-01  3.79438817614E-01
  3.88811000413E-01  3.98414677215E-01  4.08255565947E-01  4.18339525772E-01
  4.28672560574E-01  4.39260822534E-01  4.50110615793E-01  4.61228400203E-01
  4.72620795178E-01  4.84294583629E-01  4.96256716009E-01  5.08514314447E-01
  5.21074676987E-01  5.33945281939E-01  5.47133792325E-01  5.60648060448E-01
  5.74496132560E-01  5.88686253660E-01  6.03226872396E-01  6.18126646102E-01
  6.33394445946E-01  6.49039362217E-01  6.65070709734E-01  6.81498033394E-01
  6.98331113853E-01  7.15579973352E-01  7.33254881681E-01  7.51366362296E-01
  7.69925198582E-01  7.88942440277E-01  8.08429410047E-01  8.28397710230E-01
  8.48859229743E-01  8.69826151162E-01  8.91310957971E-01  9.13326442000E-01
  9.35885711038E-01  9.59002196637E-01  9.82689662111E-01  1.00696221073E+00
  1.03183429411E+00  1.05732072084E+00  1.08343666527E+00  1.11019767655E+00
  1.13761968791E+00  1.16571902613E+00  1.19451242127E+00  1.22401701660E+00
  1.25425037887E+00  1.28523050868E+00  1.31697585130E+00  1.34950530756E+00
  1.38283824516E+00  1.41699451018E+00  1.45199443892E+00  1.48785886995E+00
  1.52460915659E+00  1.56226717957E+00  1.60085536008E+00  1.64039667313E+00
  1.68091466119E+00  1.72243344826E+00  1.76497775419E+00  1.80857290941E+00
  1.85324487001E+00  1.89902023323E+00  1.94592625322E+00  1.99399085735E+00
  2.04324266277E+00  2.09371099350E+00  2.14542589785E+00  2.19841816634E+00
  2.25271935000E+00  2.30836177920E+00  2.36537858285E+00  2.42380370816E+00
  2.48367194085E+00  2.54501892582E+00  2.60788118844E+00  2.67229615624E+00
  2.73830218121E+00  2.80593856265E+00  2.87524557056E+00  2.94626446960E+00
  3.01903754368E+00  3.09360812113E+00  3.17002060050E+00  3.24832047696E+00
  3.32855436946E+00  3.41077004840E+00  3.49501646415E+00  3.58134377614E+00
  3.66980338275E+00  3.76044795189E+00  3.85333145241E+00  3.94850918617E+00
  4.04603782098E+00  4.14597542439E+00  4.24838149818E+00  4.35331701388E+00
  4.46084444899E+00  4.57102782421E+00  4.68393274158E+00  4.79962642350E+00
  4.91817775278E+00  5.03965731365E+00  5.16413743375E+00  5.29169222726E+00
  5.42239763896E+00  5.55633148949E+00  5.69357352166E+00  5.83420544794E+00
  5.97831099911E+00  6.12597597410E+00  6.27728829111E+00  6.43233803988E+00
  6.59121753544E+00  6.75402137296E+00  6.92084648415E+00  7.09179219493E+00
  7.26696028460E+00  7.44645504639E+00  7.63038334962E+00  7.81885470326E+00
  8.01198132120E+00  8.20987818900E+00  8.41266313238E+00  8.62045688738E+00
  8.83338317223E+00  9.05156876101E+00  9.27514355914E+00  9.50424068070E+00
  9.73899652774E+00  9.97955087143E+00  1.02260469353E+01  1.04786314805E+01
  1.07374548933E+01  1.10026712744E+01  1.12744385309E+01  1.15529184702E+01
  1.18382768962E+01  1.21306837084E+01  1.24303130028E+01  1.27373431756E+01
  1.30519570292E+01  1.33743418815E+01  1.37046896770E+01  1.40431971014E+01
  1.43900656984E+01  1.47455019900E+01  1.51097175992E+01  1.54829293762E+01
  1.58653595274E+01  1.62572357476E+01  1.66587913560E+01  1.70702654344E+01
  1.74919029703E+01  1.79239550023E+01  1.83666787695E+01  1.88203378651E+01
  1.92852023930E+01  1.97615491287E+01  2.02496616840E+01  2.07498306759E+01
  2.12623539000E+01  2.17875365072E+01  2.23256911857E+01  2.28771383471E+01
  2.34422063174E+01  2.40212315321E+01  2.46145587367E+01  2.52225411921E+01
  2.58455408846E+01  2.64839287419E+01  2.71380848532E+01  2.78083986963E+01
  2.84952693691E+01  2.91991058272E+01  2.99203271274E+01  3.06593626773E+01
  3.14166524911E+01  3.21926474511E+01  3.29878095766E+01  3.38026122988E+01
  3.46375407427E+01  3.54930920160E+01  3.63697755050E+01  3.72681131779E+01
  3.81886398954E+01  3.91319037296E+01  4.00984662900E+01  4.10889030576E+01
  4.21038037283E+01  4.31437725632E+01  4.42094287490E+01  4.53014067662E+01
  4.64203567670E+01  4.75669449626E+01  4.87418540196E+01  4.99457834666E+01
  5.11794501105E+01  5.24435884636E+01  5.37389511807E+01  5.50663095070E+01
  5.64264537380E+01  5.78201936892E+01  5.92483591789E+01  6.07118005217E+01
  6.22113890355E+01  6.37480175594E+01  6.53226009861E+01  6.69360768061E+01
  6.85894056659E+01  7.02835719403E+01  7.20195843181E+01  7.37984764030E+01
  7.56213073287E+01  7.74891623897E+01  7.94031536873E+01
  </PP_R>
  <PP_RAB>
  2.87736946838E-06  2.94844082795E-06  3.02126765833E-06  3.09589331988E-06
  3.17236224391E-06  3.25071995924E-06  3.33101311923E-06  3.41328952958E-06
  3.49759817680E-06  3.58398925739E-06  3.67251420769E-06  3.76322573453E-06
  3.85617784660E-06  3.95142588662E-06  4.04902656428E-06  4.14903798999E-06
  4.25151970951E-06  4.35653273939E-06  4.46413960329E-06  4.57440436921E-06
  4.68739268763E-06  4.80317183062E-06  4.92181073187E-06  5.04338002774E-06
  5.16795209932E-06  5.29560111551E-06  5.42640307720E-06  5.56043586252E-06
  5.69777927318E-06  5.83851508201E-06  5.98272708164E-06  6.13050113438E-06
  6.28192522337E-06  6.43708950491E-06  6.59608636220E-06  6.75901046031E-06
  6.92595880254E-06  7.09703078818E-06  7.27232827170E-06  7.45195562340E-06
  7.63601979151E-06  7.82463036593E-06  8.01789964340E-06  8.21594269445E-06
  8.41887743182E-06  8.62682468074E-06  8.83990825082E-06  9.05825500980E-06
  9.28199495904E-06  9.51126131098E-06  9.74619056840E-06  9.98692260573E-06
  1.02336007523E-05  1.04863718777E-05  1.07453864792E-05  1.10107987714E-05
  1.12827667780E-05  1.15614524259E-05  1.18470216416E-05  1.21396444501E-05
  1.24394950758E-05  1.27467520469E-05  1.30615983007E-05  1.33842212935E-05
  1.37148131116E-05  1.40535705860E-05  1.44006954093E-05  1.47563942560E-05
  1.51208789054E-05  1.54943663680E-05  1.58770790142E-05  1.62692447072E-05
  1.66710969382E-05  1.70828749660E-05  1.75048239587E-05  1.79371951406E-05
  1.83802459408E-05  1.88342401471E-05  1.92994480630E-05  1.97761466683E-05
  2.02646197845E-05  2.07651582433E-05  2.12780600601E-05  2.18036306113E-05
  2.23421828160E-05  2.28940373226E-05  2.34595226995E-05  2.40389756308E-05
  2.46327411168E-05  2.52411726791E-05  2.58646325715E-05  2.65034919956E-05
  2.71581313215E-05  2.78289403148E-05  2.85163183679E-05  2.92206747387E-05
  2.99424287935E-05  3.06820102572E-05  3.14398594688E-05  3.22164276438E-05
  3.30121771428E-05  3.38275817467E-05  3.46631269389E-05  3.55193101943E-05
  3.63966412753E-05  3.72956425358E-05  3.82168492317E-05  3.91608098398E-05
  4.01280863844E-05  4.11192547718E-05  4.21349051334E-05  4.31756421766E-05
  4.42420855455E-05  4.53348701894E-05  4.64546467406E-05  4.76020819025E-05
  4.87778588460E-05  4.99826776164E-05  5.12172555501E-05  5.24823277020E-05
  5.37786472827E-05  5.51069861074E-05  5.64681350551E-05  5.78629045397E-05
  5.92921249923E-05  6.07566473558E-05  6.22573435916E-05  6.37951071984E-05
  6.53708537446E-05  6.69855214133E-05  6.86400715606E-05  7.03354892885E-05
  7.20727840309E-05  7.38529901549E-05  7.56771675766E-05  7.75464023921E-05
  7.94618075244E-05  8.14245233856E-05  8.34357185562E-05  8.54965904807E-05
  8.76083661808E-05  8.97723029856E-05  9.19896892804E-05  9.42618452738E-05
  9.65901237838E-05  9.89759110430E-05  1.01420627524E-04  1.03925728786E-04
  1.06492706340E-04  1.09123088536E-04  1.11818441478E-04  1.14580369951E-04
  1.17410518377E-04  1.20310571797E-04  1.23282256873E-04  1.26327342915E-04
  1.29447642935E-04  1.32645014728E-04  1.35921361975E-04  1.39278635379E-04
  1.42718833825E-04  1.46244005572E-04  1.49856249470E-04  1.53557716211E-04
  1.57350609610E-04  1.61237187915E-04  1.65219765156E-04  1.69300712516E-04
  1.73482459749E-04  1.77767496624E-04  1.82158374407E-04  1.86657707380E-04
  1.91268174399E-04  1.95992520488E-04  2.00833558474E-04  2.05794170660E-04
  2.10877310541E-04  2.16086004567E-04  2.21423353940E-04  2.26892536461E-04
  2.32496808425E-04  2.38239506556E-04  2.44124049997E-04  2.50153942344E-04
  2.56332773731E-04  2.62664222969E-04  2.69152059738E-04  2.75800146828E-04
  2.82612442439E-04  2.89593002543E-04  2.96745983290E-04  3.04075643492E-04
  3.11586347150E-04  3.19282566060E-04  3.27168882470E-04  3.35249991809E-04
  3.43530705486E-04  3.52015953752E-04  3.60710788633E-04  3.69620386945E-04
  3.78750053368E-04  3.88105223611E-04  3.97691467643E-04  4.07514493015E-04
  4.17580148253E-04  4.27894426342E-04  4.38463468296E-04  4.49293566813E-04
  4.60391170018E-04  4.71762885310E-04  4.83415483289E-04  4.95355901789E-04
  5.07591250010E-04  5.20128812752E-04  5.32976054747E-04  5.46140625110E-04
  5.59630361887E-04  5.73453296727E-04  5.87617659661E-04  6.02131884001E-04
  6.17004611367E-04  6.32244696822E-04  6.47861214157E-04  6.63863461280E-04
  6.80260965763E-04  6.97063490509E-04  7.14281039564E-04  7.31923864078E-04
  7.50002468403E-04  7.68527616352E-04  7.87510337603E-04  8.06961934271E-04
  8.26893987633E-04  8.47318365024E-04  8.68247226905E-04  8.89693034102E-04
  9.11668555224E-04  9.34186874266E-04  9.57261398399E-04  9.80905865955E-04
  1.00513435460E-03  1.02996128973E-03  1.05540145303E-03  1.08146999132E-03
  1.10818242552E-03  1.13555465995E-03  1.16360299175E-03  1.19234412059E-03
  1.22179515864E-03  1.25197364076E-03  1.28289753488E-03  1.31458525277E-03
  1.34705566097E-03  1.38032809201E-03  1.41442235596E-03  1.44935875219E-03
  1.48515808145E-03  1.52184165830E-03  1.55943132375E-03  1.59794945830E-03
  1.63741899524E-03  1.67786343432E-03  1.71930685573E-03  1.76177393446E-03
  1.80528995495E-03  1.84988082620E-03  1.89557309715E-03  1.94239397248E-03
  1.99037132886E-03  2.03953373151E-03  2.08991045121E-03  2.14153148172E-03
  2.19442755768E-03  2.24863017285E-03  2.30417159889E-03  2.36108490461E-03
  2.41940397557E-03  2.47916353435E-03  2.54039916116E-03  2.60314731506E-03
  2.66744535563E-03  2.73333156526E-03  2.80084517192E-03  2.87002637248E-03
  2.94091635672E-03  3.01355733180E-03  3.08799254738E-03  3.16426632142E-03
  3.24242406653E-03  3.32251231700E-03  3.40457875655E-03  3.48867224667E-03
  3.57484285575E-03  3.66314188887E-03  3.75362191835E-03  3.84633681505E-03
  3.94134178044E-03  4.03869337951E-03  4.13844957436E-03  4.24066975879E-03
  4.34541479363E-03  4.45274704298E-03  4.56273041133E-03  4.67543038164E-03
  4.79091405428E-03  4.90925018704E-03  5.03050923599E-03  5.15476339752E-03
  5.28208665125E-03  5.41255480410E-03  5.54624553547E-03  5.68323844341E-03
  5.82361509205E-03  5.96745906020E-03  6.11485599105E-03  6.26589364318E-03
  6.42066194283E-03  6.57925303744E-03  6.74176135047E-03  6.90828363768E-03
  7.07891904470E-03  7.25376916606E-03  7.43293810570E-03  7.61653253892E-03
  7.80466177593E-03  7.99743782692E-03  8.19497546872E-03  8.39739231319E-03
  8.60480887719E-03  8.81734865437E-03  9.03513818870E-03  9.25830714978E-03
  9.48698841008E-03  9.72131812404E-03  9.96143580910E-03  1.02074844288E-02
  1.04596104780E-02  1.07179640698E-02  1.09826990253E-02  1.12539729650E-02
  1.15319474023E-02  1.18167878406E-02  1.21086638706E-02  1.24077492725E-02
  1.27142221185E-02  1.30282648793E-02  1.33500645327E-02  1.36798126749E-02
  1.40177056345E-02  1.43639445893E-02  1.47187356865E-02  1.50822901649E-02
  1.54548244811E-02  1.58365604381E-02  1.62277253175E-02  1.66285520148E-02
  1.70392791780E-02  1.74601513498E-02  1.78914191130E-02  1.83333392400E-02
  1.87861748454E-02  1.92501955427E-02  1.97256776051E-02  2.02129041296E-02
  2.07121652057E-02  2.12237580884E-02  2.17479873745E-02  2.22851651848E-02
  2.28356113493E-02  2.33996535979E-02  2.39776277555E-02  2.45698779418E-02
  2.51767567764E-02  2.57986255886E-02  2.64358546325E-02  2.70888233077E-02
  2.77579203850E-02  2.84435442376E-02  2.91461030790E-02  2.98660152051E-02
  3.06037092443E-02  3.13596244118E-02  3.21342107716E-02  3.29279295044E-02
  3.37412531818E-02  3.45746660485E-02  3.54286643096E-02  3.63037564267E-02
  3.72004634207E-02  3.81193191814E-02  3.90608707859E-02  4.00256788243E-02
  4.10143177331E-02  4.20273761377E-02  4.30654572023E-02  4.41291789895E-02
  4.52191748283E-02  4.63360936907E-02  4.74806005786E-02  4.86533769193E-02
  4.98551209716E-02  5.10865482414E-02  5.23483919076E-02  5.36414032586E-02
  5.49663521400E-02  5.63240274124E-02  5.77152374215E-02  5.91408104792E-02
  6.06015953567E-02  6.20984617901E-02  6.36323009980E-02  6.52040262122E-02
  6.68145732215E-02  6.84649009287E-02  7.01559919216E-02  7.18888530582E-02
  7.36645160658E-02  7.54840381557E-02  7.73485026522E-02  7.92590196379E-02
  8.12167266148E-02  8.32227891810E-02  8.52784017253E-02  8.73847881378E-02
  8.95432025390E-02  9.17549300262E-02  9.40212874389E-02  9.63436241424E-02
  9.87233228319E-02  1.01161800355E-01  1.03660508556E-01  1.06220935139E-01
  1.08844604555E-01  1.11533078911E-01  1.14287958895E-01  1.17110884733E-01
  1.20003537168E-01  1.22967638453E-01  1.26004953384E-01  1.29117290345E-01
  1.32306502391E-01  1.35574488344E-01  1.38923193929E-01  1.42354612930E-01
  1.45870788378E-01  1.49473813768E-01  1.53165834303E-01  1.56949048173E-01
  1.60825707865E-01  1.64798121500E-01  1.68868654213E-01  1.73039729556E-01
  1.77313830944E-01  1.81693503132E-01  1.86181353731E-01  1.90780054760E-01
  1.95492344237E-01  2.00321027812E-01  2.05268980430E-01  2.10339148052E-01
  2.15534549403E-01  2.20858277769E-01  2.26313502843E-01  2.31903472609E-01
  2.37631515277E-01  2.43501041263E-01  2.49515545221E-01  2.55678608125E-01
  2.61993899397E-01  2.68465179096E-01  2.75096300155E-01  2.81891210672E-01
  2.88853956267E-01  2.95988682486E-01  3.03299637269E-01  3.10791173484E-01
  3.18467751512E-01  3.26333941908E-01  3.34394428119E-01  3.42654009274E-01
  3.51117603041E-01  3.59790248556E-01  3.68677109421E-01  3.77783476779E-01
  3.87114772468E-01  3.96676552243E-01  4.06474509086E-01  4.16514476600E-01
  4.26802432476E-01  4.37344502056E-01  4.48146961976E-01  4.59216243909E-01
  4.70558938390E-01  4.82181798740E-01  4.94091745089E-01  5.06295868493E-01
  5.18801435161E-01  5.31615890776E-01  5.44746864930E-01  5.58202175670E-01
  5.71989834144E-01  5.86118049383E-01  6.00595233176E-01  6.15430005087E-01
  6.30631197585E-01  6.46207861301E-01  6.62169270417E-01  6.78524928190E-01
  6.95284572606E-01  7.12458182183E-01  7.30055981908E-01  7.48088449327E-01
  7.66566320783E-01  7.85500597806E-01  8.04902553668E-01  8.24783740090E-01
  8.45155994122E-01  8.66031445191E-01  8.87422522322E-01  9.09341961540E-01
  9.31802813448E-01  9.54818451003E-01  9.78402577475E-01  1.00256923461E+00
  1.02733281097E+00  1.05270805054E+00  1.07871006148E+00  1.10535432509E+00
  1.13265670511E+00  1.16063345709E+00  1.18930123808E+00  1.21867711658E+00
  1.24877858270E+00  1.27962355851E+00  1.31123040881E+00  1.34361795197E+00
  1.37680547121E+00  1.41081272602E+00  1.44565996396E+00  1.48136793273E+00
  1.51795789247E+00  1.55545162845E+00  1.59387146406E+00  1.63324027407E+00
  1.67358149825E+00  1.71491915534E+00  1.75727785736E+00  1.80068282423E+00
  1.84515989882E+00  1.89073556231E+00  1.93743694997E+00
  </PP_RAB>
</PP_MESH>


<PP_LOCAL>
 -5.62905235765E+00 -5.62905235765E+00 -5.62905255053E+00 -5.62905274126E+00
 -5.62905292987E+00 -5.62905311661E+00 -5.62905330167E+00 -5.62905348519E+00
 -5.62905366739E+00 -5.62905384844E+00 -5.62905402854E+00 -5.62905420783E+00
 -5.62905438661E+00 -5.62905456497E+00 -5.62905474318E+00 -5.62905492147E+00
 -5.62905509999E+00 -5.62905527903E+00 -5.62905545875E+00 -5.62905563946E+00
 -5.62905582131E+00 -5.62905600465E+00 -5.62905618964E+00 -5.62905637661E+00
 -5.62905656580E+00 -5.62905675753E+00 -5.62905695207E+00 -5.62905714973E+00
 -5.62905735083E+00 -5.62905755566E+00 -5.62905776459E+00 -5.62905797799E+00
 -5.62905819620E+00 -5.62905841957E+00 -5.62905864858E+00 -5.62905888360E+00
 -5.62905912506E+00 -5.62905937340E+00 -5.62905962910E+00 -5.62905989268E+00
 -5.62906016459E+00 -5.62906044543E+00 -5.62906073571E+00 -5.62906103603E+00
 -5.62906134702E+00 -5.62906166929E+00 -5.62906200350E+00 -5.62906235039E+00
 -5.62906271063E+00 -5.62906308505E+00 -5.62906347441E+00 -5.62906387958E+00
 -5.62906430139E+00 -5.62906474079E+00 -5.62906519874E+00 -5.62906567627E+00
 -5.62906617441E+00 -5.62906669430E+00 -5.62906723706E+00 -5.62906780394E+00
 -5.62906839621E+00 -5.62906901521E+00 -5.62906966238E+00 -5.62907033914E+00
 -5.62907104706E+00 -5.62907178777E+00 -5.62907256299E+00 -5.62907337446E+00
 -5.62907422407E+00 -5.62907511382E+00 -5.62907604574E+00 -5.62907702199E+00
 -5.62907804488E+00 -5.62907911676E+00 -5.62908024014E+00 -5.62908141765E+00
 -5.62908265203E+00 -5.62908394620E+00 -5.62908530318E+00 -5.62908672616E+00
 -5.62908821848E+00 -5.62908978366E+00 -5.62909142538E+00 -5.62909314751E+00
 -5.62909495412E+00 -5.62909684945E+00 -5.62909883801E+00 -5.62910092446E+00
 -5.62910311378E+00 -5.62910541108E+00 -5.62910782190E+00 -5.62911035185E+00
 -5.62911300691E+00 -5.62911579349E+00 -5.62911871807E+00 -5.62912178769E+00
 -5.62912500951E+00 -5.62912839129E+00 -5.62913194097E+00 -5.62913566701E+00
 -5.62913957829E+00 -5.62914368398E+00 -5.62914799396E+00 -5.62915251839E+00
 -5.62915726802E+00 -5.62916225419E+00 -5.62916748868E+00 -5.62917298397E+00
 -5.62917875307E+00 -5.62918480976E+00 -5.62919116838E+00 -5.62919784409E+00
 -5.62920485269E+00 -5.62921221093E+00 -5.62921993628E+00 -5.62922804701E+00
 -5.62923656254E+00 -5.62924550306E+00 -5.62925488978E+00 -5.62926474508E+00
 -5.62927509234E+00 -5.62928595621E+00 -5.62929736251E+00 -5.62930933837E+00
 -5.62932191221E+00 -5.62933511394E+00 -5.62934897502E+00 -5.62936352831E+00
 -5.62937880842E+00 -5.62939485170E+00 -5.62941169628E+00 -5.62942938217E+00
 -5.62944795142E+00 -5.62946744815E+00 -5.62948791869E+00 -5.62950941163E+00
 -5.62953197810E+00 -5.62955567169E+00 -5.62958054863E+00 -5.62960666803E+00
 -5.62963409194E+00 -5.62966288543E+00 -5.62969311687E+00 -5.62972485799E+00
 -5.62975818416E+00 -5.62979317442E+00 -5.62982991178E+00 -5.62986848343E+00
 -5.62990898076E+00 -5.62995149983E+00 -5.62999614143E+00 -5.63004301133E+00
 -5.63009222059E+00 -5.63014388577E+00 -5.63019812921E+00 -5.63025507932E+00
 -5.63031487087E+00 -5.63037764534E+00 -5.63044355117E+00 -5.63051274420E+00
 -5.63058538792E+00 -5.63066165401E+00 -5.63074172249E+00 -5.63082578243E+00
 -5.63091403213E+00 -5.63100667969E+00 -5.63110394352E+00 -5.63120605276E+00
 -5.63131324780E+00 -5.63142578093E+00 -5.63154391678E+00 -5.63166793302E+00
 -5.63179812090E+00 -5.63193478599E+00 -5.63207824884E+00 -5.63222884561E+00
 -5.63238692894E+00 -5.63255286868E+00 -5.63272705269E+00 -5.63290988774E+00
 -5.63310180033E+00 -5.63330323772E+00 -5.63351466878E+00 -5.63373658516E+00
 -5.63396950218E+00 -5.63421395999E+00 -5.63447052490E+00 -5.63473979018E+00
 -5.63502237775E+00 -5.63531893917E+00 -5.63563015710E+00 -5.63595674665E+00
 -5.63629945690E+00 -5.63665907252E+00 -5.63703641500E+00 -5.63743234456E+00
 -5.63784776187E+00 -5.63828360952E+00 -5.63874087416E+00 -5.63922058802E+00
 -5.63972383117E+00 -5.64025173327E+00 -5.64080547571E+00 -5.64138629371E+00
 -5.64199547850E+00 -5.64263437943E+00 -5.64330440635E+00 -5.64400703187E+00
 -5.64474379371E+00 -5.64551629719E+00 -5.64632621762E+00 -5.64717530262E+00
 -5.64806537484E+00 -5.64899833431E+00 -5.64997616102E+00 -5.65100091731E+00
 -5.65207475044E+00 -5.65319989486E+00 -5.65437867481E+00 -5.65561350649E+00
 -5.65690690023E+00 -5.65826146252E+00 -5.65967989817E+00 -5.66116501175E+00
 -5.66271970936E+00 -5.66434699977E+00 -5.66604999547E+00 -5.66783191330E+00
 -5.66969607462E+00 -5.67164590532E+00 -5.67368493486E+00 -5.67581679514E+00
 -5.67804521856E+00 -5.68037403526E+00 -5.68280716972E+00 -5.68534863633E+00
 -5.68800253397E+00 -5.69077303948E+00 -5.69366439991E+00 -5.69668092333E+00
 -5.69982696819E+00 -5.70310693104E+00 -5.70652523252E+00 -5.71008630122E+00
 -5.71379455566E+00 -5.71765438383E+00 -5.72167012038E+00 -5.72584602109E+00
 -5.73018623464E+00 -5.73469477142E+00 -5.73937546906E+00 -5.74423195470E+00
 -5.74926760408E+00 -5.75448549655E+00 -5.75988836680E+00 -5.76547855262E+00
 -5.77125793891E+00 -5.77722789773E+00 -5.78338922478E+00 -5.78974207205E+00
 -5.79628587703E+00 -5.80301928867E+00 -5.80994009053E+00 -5.81704512154E+00
 -5.82433019475E+00 -5.83179001527E+00 -5.83941809773E+00 -5.84720668443E+00
 -5.85514666569E+00 -5.86322750294E+00 -5.87143715686E+00 -5.87976202168E+00
 -5.88818686761E+00 -5.89669479331E+00 -5.90526719055E+00 -5.91388372312E+00
 -5.92252232223E+00 -5.93115920086E+00 -5.93976888891E+00 -5.94832429194E+00
 -5.95679677469E+00 -5.96515627185E+00 -5.97337142768E+00 -5.98140976437E+00
 -5.98923788160E+00 -5.99682168576E+00 -6.00412664936E+00 -6.01111809832E+00
 -6.01776152620E+00 -6.02402293146E+00 -6.02986917440E+00 -6.03526834934E+00
 -6.04019016606E+00 -6.04460633496E+00 -6.04849094813E+00 -6.05182085027E+00
 -6.05457599017E+00 -6.05673974618E+00 -6.05829921694E+00 -6.05924547029E+00
 -6.05957374372E+00 -6.05928358928E+00 -6.05837895945E+00 -6.05686822924E+00
 -6.05476415339E+00 -6.05208375719E+00 -6.04884816379E+00 -6.04508236013E+00
 -6.04081490701E+00 -6.03607760001E+00 -6.03090508918E+00 -6.02533446684E+00
 -6.01940483416E+00 -6.01315685682E+00 -6.00663232118E+00 -5.99987370180E+00
 -5.99292375061E+00 -5.98582511752E+00 -5.97862001103E+00 -5.97134990571E+00
 -5.96405530297E+00 -5.95677554891E+00 -5.94954871196E+00 -5.94241152189E+00
 -5.93539936975E+00 -5.92854636731E+00 -5.92188546365E+00 -5.91544861544E+00
 -5.90926700722E+00 -5.90337131689E+00 -5.89779202214E+00 -5.89255974296E+00
 -5.88770561578E+00 -5.88326169466E+00 -5.87926137566E+00 -5.87573984051E+00
 -5.87273451613E+00 -5.87028554674E+00 -5.86843627588E+00 -5.86723373524E+00
 -5.86672913773E+00 -5.86697837184E+00 -5.86804249425E+00 -5.86998821692E+00
 -5.87288838495E+00 -5.87682243987E+00 -5.88187686280E+00 -5.88814559059E+00
 -5.89573039639E+00 -5.90474122495E+00 -5.91529647134E+00 -5.92752318900E+00
 -5.94155721217E+00 -5.95754317424E+00 -5.97563440135E+00 -5.99599265820E+00
 -6.01878771894E+00 -6.04419673394E+00 -6.07240335878E+00 -6.10359660867E+00
 -6.13796939797E+00 -6.17571671985E+00 -6.21703341894E+00 -6.26211150483E+00
 -6.31113695236E+00 -6.36428593122E+00 -6.42172040576E+00 -6.48358304276E+00
 -6.54999136296E+00 -6.62103106589E+00 -6.69674844674E+00 -6.77714180144E+00
 -6.86215167333E+00 -6.95164971852E+00 -7.04542584038E+00 -7.14317304486E+00
 -7.24446918503E+00 -7.34875440508E+00 -7.45530272805E+00 -7.56318605564E+00
 -7.67122925772E+00 -7.77795670836E+00 -7.88153447260E+00 -7.97971912483E+00
 -8.06983350747E+00 -8.14879864110E+00 -8.21325277814E+00 -8.25977455773E+00