<PP_INFO>
Generated using "atomic" code by A. Dal Corso  (espresso distribution)     
Author: Dario Alfe'   Generation date:  2Oct2006                             
Ir                                                                         
    1        The Pseudo was generated with a Scalar-Relativistic Calculation
    0 2.6000000E+00    L component and cutoff radius for Local Potential
nl pn  l   occ               Rcut            Rcut US             E pseu
5D  3  2  7.00      2.10000000000      2.40000000000     -0.52531113155
5D  3  2  0.00      2.10000000000      2.40000000000     -0.20000000000
6P  2  1  0.00      2.40000000000      2.40000000000     -0.08937126301
6S  1  0  2.00      2.60000000000      2.60000000000     -0.46531459893
</PP_INFO>


<PP_HEADER>
   0                   Version Number
  Ir                   Element
   US                  Ultrasoft pseudopotential
    T                  Nonlinear Core Correction
 SLA  PW   PBE  PBE    PBE  Exchange-Correlation functional
    9.00000000000      Z valence
  -40.76791232484      Total energy
  0.0000000  0.0000000 Suggested cutoff for wfc and rho
    2                  Max angular momentum component
 1277                  Number of points in mesh
    3    3             Number of Wavefunctions, Number of Projectors
 Wavefunctions         nl  l   occ
                       5D  2  7.00
                       6P  1  0.00
                       6S  0  2.00
</PP_HEADER>


<PP_MESH>
  <PP_R>
  1.18426229293E-05  1.19915847879E-05  1.21424203561E-05  1.22951532021E-05
  1.24498071908E-05  1.26064064873E-05  1.27649755604E-05  1.29255391869E-05
  1.30881224552E-05  1.32527507692E-05  1.34194498526E-05  1.35882457522E-05
  1.37591648430E-05  1.39322338312E-05  1.41074797593E-05  1.42849300098E-05
  1.44646123097E-05  1.46465547347E-05  1.48307857136E-05  1.50173340330E-05
  1.52062288414E-05  1.53974996540E-05  1.55911763573E-05  1.57872892136E-05
  1.59858688659E-05  1.61869463428E-05  1.63905530629E-05  1.65967208403E-05
  1.68054818892E-05  1.70168688287E-05  1.72309146887E-05  1.74476529141E-05
  1.76671173708E-05  1.78893423505E-05  1.81143625763E-05  1.83422132082E-05
  1.85729298482E-05  1.88065485462E-05  1.90431058058E-05  1.92826385893E-05
  1.95251843244E-05  1.97707809092E-05  2.00194667188E-05  2.02712806108E-05
  2.05262619316E-05  2.07844505227E-05  2.10458867264E-05  2.13106113927E-05
  2.15786658854E-05  2.18500920885E-05  2.21249324130E-05  2.24032298032E-05
  2.26850277437E-05  2.29703702658E-05  2.32593019551E-05  2.35518679576E-05
  2.38481139874E-05  2.41480863335E-05  2.44518318673E-05  2.47593980495E-05
  2.50708329380E-05  2.53861851952E-05  2.57055040955E-05  2.60288395331E-05
  2.63562420298E-05  2.66877627430E-05  2.70234534734E-05  2.73633666733E-05
  2.77075554550E-05  2.80560735986E-05  2.84089755608E-05  2.87663164832E-05
  2.91281522011E-05  2.94945392520E-05  2.98655348847E-05  3.02411970680E-05
  3.06215844999E-05  3.10067566166E-05  3.13967736021E-05  3.17916963974E-05
  3.21915867100E-05  3.25965070234E-05  3.30065206074E-05  3.34216915274E-05
  3.38420846547E-05  3.42677656765E-05  3.46988011065E-05  3.51352582947E-05
  3.55772054386E-05  3.60247115931E-05  3.64778466821E-05  3.69366815089E-05
  3.74012877674E-05  3.78717380531E-05  3.83481058750E-05  3.88304656664E-05
  3.93188927971E-05  3.98134635848E-05  4.03142553071E-05  4.08213462139E-05
  4.13348155391E-05  4.18547435133E-05  4.23812113763E-05  4.29143013898E-05
  4.34540968503E-05  4.40006821017E-05  4.45541425493E-05  4.51145646723E-05
  4.56820360378E-05  4.62566453144E-05  4.68384822859E-05  4.74276378656E-05
  4.80242041102E-05  4.86282742343E-05  4.92399426253E-05  4.98593048575E-05
  5.04864577075E-05  5.11214991692E-05  5.17645284692E-05  5.24156460821E-05
  5.30749537463E-05  5.37425544800E-05  5.44185525972E-05  5.51030537240E-05
  5.57961648150E-05  5.64979941702E-05  5.72086514521E-05  5.79282477021E-05
  5.86568953586E-05  5.93947082744E-05  6.01418017342E-05  6.08982924729E-05
  6.16642986937E-05  6.24399400866E-05  6.32253378471E-05  6.40206146954E-05
  6.48258948949E-05  6.56413042725E-05  6.64669702373E-05  6.73030218015E-05
  6.81495895998E-05  6.90068059101E-05  6.98748046742E-05  7.07537215187E-05
  7.16436937761E-05  7.25448605065E-05  7.34573625189E-05  7.43813423936E-05
  7.53169445044E-05  7.62643150411E-05  7.72236020321E-05  7.81949553681E-05
  7.91785268249E-05  8.01744700876E-05  8.11829407744E-05  8.22040964609E-05
  8.32380967046E-05  8.42851030704E-05  8.53452791549E-05  8.64187906130E-05
  8.75058051829E-05  8.86064927129E-05  8.97210251877E-05  9.08495767552E-05
  9.19923237539E-05  9.31494447404E-05  9.43211205171E-05  9.55075341608E-05
  9.67088710510E-05  9.79253188990E-05  9.91570677774E-05  1.00404310149E-04
  1.01667240899E-04  1.02946057362E-04  1.04240959356E-04  1.05552149212E-04
  1.06879831805E-04  1.08224214590E-04  1.09585507629E-04  1.10963923627E-04
  1.12359677963E-04  1.13772988727E-04  1.15204076752E-04  1.16653165649E-04
  1.18120481840E-04  1.19606254597E-04  1.21110716074E-04  1.22634101348E-04
  1.24176648449E-04  1.25738598404E-04  1.27320195270E-04  1.28921686177E-04
  1.30543321359E-04  1.32185354201E-04  1.33848041273E-04  1.35531642374E-04
  1.37236420570E-04  1.38962642235E-04  1.40710577097E-04  1.42480498272E-04
  1.44272682315E-04  1.46087409258E-04  1.47924962656E-04  1.49785629630E-04
  1.51669700914E-04  1.53577470897E-04  1.55509237673E-04  1.57465303083E-04
  1.59445972767E-04  1.61451556209E-04  1.63482366785E-04  1.65538721813E-04
  1.67620942604E-04  1.69729354507E-04  1.71864286968E-04  1.74026073573E-04
  1.76215052107E-04  1.78431564600E-04  1.80675957389E-04  1.82948581163E-04
  1.85249791026E-04  1.87579946545E-04  1.89939411813E-04  1.92328555500E-04
  1.94747750915E-04  1.97197376063E-04  1.99677813702E-04  2.02189451405E-04
  2.04732681621E-04  2.07307901736E-04  2.09915514132E-04  2.12555926254E-04
  2.15229550672E-04  2.17936805145E-04  2.20678112688E-04  2.23453901634E-04
  2.26264605708E-04  2.29110664086E-04  2.31992521472E-04  2.34910628161E-04
  2.37865440113E-04  2.40857419025E-04  2.43887032398E-04  2.46954753617E-04
  2.50061062018E-04  2.53206442969E-04  2.56391387941E-04  2.59616394590E-04
  2.62881966829E-04  2.66188614909E-04  2.69536855503E-04  2.72927211778E-04
  2.76360213485E-04  2.79836397039E-04  2.83356305598E-04  2.86920489157E-04
  2.90529504626E-04  2.94183915921E-04  2.97884294051E-04  3.01631217208E-04
  3.05425270857E-04  3.09267047826E-04  3.13157148400E-04  3.17096180416E-04
  3.21084759355E-04  3.25123508441E-04  3.29213058737E-04  3.33354049243E-04
  3.37547126997E-04  3.41792947176E-04  3.46092173199E-04  3.50445476829E-04
  3.54853538277E-04  3.59317046312E-04  3.63836698367E-04  3.68413200646E-04
  3.73047268237E-04  3.77739625223E-04  3.82491004794E-04  3.87302149362E-04
  3.92173810679E-04  3.97106749953E-04  4.02101737963E-04  4.07159555189E-04
  4.12280991923E-04  4.17466848401E-04  4.22717934923E-04  4.28035071983E-04
  4.33419090394E-04  4.38870831419E-04  4.44391146905E-04  4.49980899411E-04
  4.55640962349E-04  4.61372220113E-04  4.67175568226E-04  4.73051913472E-04
  4.79002174042E-04  4.85027279676E-04  4.91128171809E-04  4.97305803719E-04
  5.03561140672E-04  5.09895160077E-04  5.16308851639E-04  5.22803217510E-04
  5.29379272446E-04  5.36038043971E-04  5.42780572531E-04  5.49607911660E-04
  5.56521128143E-04  5.63521302185E-04  5.70609527577E-04  5.77786911868E-04
  5.85054576540E-04  5.92413657179E-04  5.99865303658E-04  6.07410680311E-04
  6.15050966119E-04  6.22787354891E-04  6.30621055455E-04  6.38553291841E-04
  6.46585303479E-04  6.54718345385E-04  6.62953688366E-04  6.71292619208E-04
  6.79736440889E-04  6.88286472771E-04  6.96944050815E-04  7.05710527784E-04
  7.14587273460E-04  7.23575674851E-04  7.32677136413E-04  7.41893080268E-04
  7.51224946426E-04  7.60674193011E-04  7.70242296486E-04  7.79930751887E-04
  7.89741073055E-04  7.99674792872E-04  8.09733463502E-04  8.19918656634E-04
  8.30231963723E-04  8.40674996247E-04  8.51249385948E-04  8.61956785099E-04
  8.72798866750E-04  8.83777325000E-04  8.94893875255E-04  9.06150254499E-04
  9.17548221564E-04  9.29089557405E-04  9.40776065380E-04  9.52609571529E-04
  9.64591924861E-04  9.76724997645E-04  9.89010685696E-04  1.00145090868E-03
  1.01404761040E-03  1.02680275913E-03  1.03971834788E-03  1.05279639473E-03
  1.06603894317E-03  1.07944806235E-03  1.09302584750E-03  1.10677442015E-03
  1.12069592856E-03  1.13479254799E-03  1.14906648107E-03  1.16351995812E-03
  1.17815523752E-03  1.19297460609E-03  1.20798037936E-03  1.22317490202E-03
  1.23856054825E-03  1.25413972209E-03  1.26991485781E-03  1.28588842031E-03
  1.30206290549E-03  1.31844084065E-03  1.33502478487E-03  1.35181732944E-03
  1.36882109821E-03  1.38603874806E-03  1.40347296928E-03  1.42112648602E-03
  1.43900205665E-03  1.45710247429E-03  1.47543056715E-03  1.49398919904E-03
  1.51278126979E-03  1.53180971568E-03  1.55107750996E-03  1.57058766325E-03
  1.59034322406E-03  1.61034727924E-03  1.63060295446E-03  1.65111341470E-03
  1.67188186478E-03  1.69291154979E-03  1.71420575569E-03  1.73576780971E-03
  1.75760108099E-03  1.77970898102E-03  1.80209496419E-03  1.82476252837E-03
  1.84771521541E-03  1.87095661171E-03  1.89449034878E-03  1.91832010383E-03
  1.94244960029E-03  1.96688260846E-03  1.99162294604E-03  2.01667447875E-03
  2.04204112096E-03  2.06772683624E-03  2.09373563805E-03  2.12007159031E-03
  2.14673880807E-03  2.17374145814E-03  2.20108375973E-03  2.22876998514E-03
  2.25680446040E-03  2.28519156594E-03  2.31393573731E-03  2.34304146585E-03
  2.37251329939E-03  2.40235584295E-03  2.43257375951E-03  2.46317177066E-03
  2.49415465741E-03  2.52552726091E-03  2.55729448317E-03  2.58946128790E-03
  2.62203270123E-03  2.65501381250E-03  2.68840977508E-03  2.72222580716E-03
  2.75646719256E-03  2.79113928156E-03  2.82624749176E-03  2.86179730887E-03
  2.89779428764E-03  2.93424405266E-03  2.97115229929E-03  3.00852479451E-03
  3.04636737784E-03  3.08468596228E-03  3.12348653517E-03  3.16277515919E-03
  3.20255797327E-03  3.24284119354E-03  3.28363111435E-03  3.32493410920E-03
  3.36675663176E-03  3.40910521691E-03  3.45198648167E-03  3.49540712635E-03
  3.53937393551E-03  3.58389377904E-03  3.62897361327E-03  3.67462048200E-03
  3.72084151766E-03  3.76764394239E-03  3.81503506914E-03  3.86302230288E-03
  3.91161314172E-03  3.96081517807E-03  4.01063609984E-03  4.06108369167E-03
  4.11216583609E-03  4.16389051479E-03  4.21626580985E-03  4.26929990502E-03
  4.32300108699E-03  4.37737774667E-03  4.43243838053E-03  4.48819159191E-03
  4.54464609235E-03  4.60181070299E-03  4.65969435592E-03  4.71830609557E-03
  4.77765508015E-03  4.83775058305E-03  4.89860199433E-03  4.96021882213E-03
  5.02261069421E-03  5.08578735944E-03  5.14975868929E-03  5.21453467940E-03
  5.28012545118E-03  5.34654125329E-03  5.41379246336E-03  5.48188958951E-03
  5.55084327206E-03  5.62066428517E-03  5.69136353851E-03  5.76295207898E-03
  5.83544109243E-03  5.90884190543E-03  5.98316598700E-03  6.05842495043E-03
  6.13463055508E-03  6.21179470823E-03  6.28992946695E-03  6.36904703995E-03
  6.44915978950E-03  6.53028023339E-03  6.61242104685E-03  6.69559506456E-03
  6.77981528261E-03  6.86509486060E-03  6.95144712362E-03  7.03888556441E-03
  7.12742384538E-03  7.21707580083E-03  7.30785543905E-03  7.39977694456E-03
  7.49285468027E-03  7.58710318976E-03  7.68253719957E-03  7.77917162144E-03
  7.87702155471E-03  7.97610228862E-03  8.07642930474E-03  8.17801827937E-03
  8.28088508600E-03  8.38504579776E-03  8.49051669000E-03  8.59731424274E-03
  8.70545514332E-03  8.81495628898E-03  8.92583478949E-03  9.03810796985E-03
  9.15179337297E-03  9.26690876242E-03  9.38347212522E-03  9.50150167463E-03
  9.62101585301E-03  9.74203333469E-03  9.86457302890E-03  9.98865408271E-03
  1.01142958840E-02  1.02415180647E-02  1.03703405034E-02  1.05007833289E-02
  1.06328669231E-02  1.07666119244E-02  1.09020392308E-02  1.10391700029E-02
  1.11780256679E-02  1.13186279220E-02  1.14609987349E-02  1.16051603521E-02
  1.17511352992E-02  1.18989463851E-02  1.20486167056E-02  1.22001696469E-02
  1.23536288896E-02  1.25090184120E-02  1.26663624939E-02  1.28256857207E-02
  1.29870129870E-02  1.31503695005E-02  1.33157807860E-02  1.34832726894E-02
  1.36528713815E-02  1.38246033626E-02  1.39984954660E-02  1.41745748629E-02
  1.43528690659E-02  1.45334059339E-02  1.47162136762E-02  1.49013208568E-02
  1.50887563991E-02  1.52785495902E-02  1.54707300859E-02  1.56653279146E-02
  1.58623734826E-02  1.60618975788E-02  1.62639313791E-02  1.64685064518E-02
  1.66756547622E-02  1.68854086775E-02  1.70978009723E-02  1.73128648333E-02
  1.75306338646E-02  1.77511420932E-02  1.79744239738E-02  1.82005143947E-02
  1.84294486830E-02  1.86612626102E-02  1.88959923976E-02  1.91336747223E-02
  1.93743467226E-02  1.96180460040E-02  1.98648106450E-02  2.01146792030E-02
  2.03676907207E-02  2.06238847314E-02  2.08833012660E-02  2.11459808590E-02
  2.14119645545E-02  2.16812939131E-02  2.19540110179E-02  2.22301584816E-02
  2.25097794528E-02  2.27929176229E-02  2.30796172326E-02  2.33699230796E-02
  2.36638805246E-02  2.39615354990E-02  2.42629345121E-02  2.45681246581E-02
  2.48771536236E-02  2.51900696949E-02  2.55069217658E-02  2.58277593452E-02
  2.61526325646E-02  2.64815921859E-02  2.68146896100E-02  2.71519768838E-02
  2.74935067093E-02  2.78393324511E-02  2.81895081452E-02  2.85440885074E-02
  2.89031289415E-02  2.92666855482E-02  2.96348151341E-02  3.00075752202E-02
  3.03850240510E-02  3.07672206036E-02  3.11542245970E-02  3.15460965014E-02
  3.19428975475E-02  3.23446897364E-02  3.27515358488E-02  3.31634994554E-02
  3.35806449262E-02  3.40030374411E-02  3.44307429998E-02  3.48638284321E-02
  3.53023614086E-02  3.57464104508E-02  3.61960449424E-02  3.66513351397E-02
  3.71123521826E-02  3.75791681061E-02  3.80518558511E-02  3.85304892759E-02
  3.90151431681E-02  3.95058932558E-02  4.00028162197E-02  4.05059897050E-02
  4.10154923336E-02  4.15314037164E-02  4.20538044654E-02  4.25827762070E-02
  4.31184015940E-02  4.36607643189E-02  4.42099491272E-02  4.47660418299E-02
  4.53291293177E-02  4.58992995742E-02  4.64766416896E-02  4.70612458749E-02
  4.76532034756E-02  4.82526069862E-02  4.88595500649E-02  4.94741275477E-02
  5.00964354636E-02  5.07265710494E-02  5.13646327652E-02  5.20107203093E-02
  5.26649346343E-02  5.33273779625E-02  5.39981538020E-02  5.46773669629E-02
  5.53651235736E-02  5.60615310975E-02  5.67666983497E-02  5.74807355141E-02
  5.82037541602E-02  5.89358672614E-02  5.96771892118E-02  6.04278358444E-02
  6.11879244492E-02  6.19575737918E-02  6.27369041313E-02  6.35260372397E-02
  6.43250964207E-02  6.51342065289E-02  6.59534939894E-02  6.67830868174E-02
  6.76231146387E-02  6.84737087092E-02  6.93350019360E-02  7.02071288979E-02
  7.10902258666E-02  7.19844308277E-02  7.28898835025E-02  7.38067253699E-02
  7.47350996884E-02  7.56751515182E-02  7.66270277444E-02  7.75908770996E-02
  7.85668501872E-02  7.95550995050E-02  8.05557794689E-02  8.15690464373E-02
  8.25950587351E-02  8.36339766789E-02  8.46859626017E-02  8.57511808784E-02
  8.68297979517E-02  8.79219823575E-02  8.90279047519E-02  9.01477379376E-02
  9.12816568908E-02  9.24298387885E-02  9.35924630366E-02  9.47697112975E-02
  9.59617675186E-02  9.71688179611E-02  9.83910512290E-02  9.96286582990E-02
  1.00881832549E-01  1.02150769791E-01  1.03435668299E-01  1.04736728840E-01
  1.06054154709E-01  1.07388151754E-01  1.08738928417E-01  1.10106695759E-01
  1.11491667496E-01  1.12894060033E-01  1.14314092496E-01  1.15751986769E-01
  1.17207967525E-01  1.18682262265E-01  1.20175101349E-01  1.21686718038E-01
  1.23217348524E-01  1.24767231972E-01  1.26336610553E-01  1.27925729486E-01
  1.29534837076E-01  1.31164184746E-01  1.32814027088E-01  1.34484621892E-01
  1.36176230191E-01  1.37889116304E-01  1.39623547871E-01  1.41379795902E-01
  1.43158134814E-01  1.44958842475E-01  1.46782200250E-01  1.48628493043E-01
  1.50498009341E-01  1.52391041258E-01  1.54307884586E-01  1.56248838834E-01
  1.58214207282E-01  1.60204297021E-01  1.62219419008E-01  1.64259888109E-01
  1.66326023151E-01  1.68418146974E-01  1.70536586474E-01  1.72681672663E-01
  1.74853740714E-01  1.77053130019E-01  1.79280184235E-01  1.81535251344E-01
  1.83818683706E-01  1.86130838111E-01  1.88472075839E-01  1.90842762712E-01
  1.93243269154E-01  1.95673970251E-01  1.98135245803E-01  2.00627480391E-01
  2.03151063431E-01  2.05706389238E-01  2.08293857086E-01  2.10913871274E-01
  2.13566841183E-01  2.16253181346E-01  2.18973311508E-01  2.21727656695E-01
  2.24516647280E-01  2.27340719048E-01  2.30200313266E-01  2.33095876751E-01
  2.36027861941E-01  2.38996726964E-01  2.42002935713E-01  2.45046957913E-01
  2.48129269198E-01  2.51250351186E-01  2.54410691553E-01  2.57610784108E-01
  2.60851128873E-01  2.64132232156E-01  2.67454606639E-01  2.70818771448E-01
  2.74225252241E-01  2.77674581287E-01  2.81167297552E-01  2.84703946779E-01
  2.88285081577E-01  2.91911261506E-01  2.95583053163E-01  2.99301030273E-01
  3.03065773778E-01  3.06877871928E-01  3.10737920369E-01  3.14646522242E-01
  3.18604288274E-01  3.22611836875E-01  3.26669794231E-01  3.30778794408E-01
  3.34939479444E-01  3.39152499455E-01  3.43418512735E-01  3.47738185855E-01
  3.52112193775E-01  3.56541219941E-01  3.61025956398E-01  3.65567103896E-01
  3.70165371997E-01  3.74821479191E-01  3.79536153003E-01  3.84310130112E-01
  3.89144156460E-01  3.94038987374E-01  3.98995387682E-01  4.04014131831E-01
  4.09096004010E-01  4.14241798272E-01  4.19452318657E-01  4.24728379321E-01
  4.30070804658E-01  4.35480429434E-01  4.40958098912E-01  4.46504668991E-01
  4.52121006332E-01  4.57807988501E-01  4.63566504099E-01  4.69397452907E-01
  4.75301746022E-01  4.81280306001E-01  4.87334067008E-01  4.93463974954E-01
  4.99670987650E-01  5.05956074954E-01  5.12320218925E-01  5.18764413972E-01
  5.25289667014E-01  5.31896997635E-01  5.38587438245E-01  5.45362034237E-01
  5.52221844157E-01  5.59167939863E-01  5.66201406698E-01  5.73323343654E-01
  5.80534863549E-01  5.87837093198E-01  5.95231173589E-01  6.02718260061E-01
  6.10299522488E-01  6.17976145457E-01  6.25749328456E-01  6.33620286060E-01
  6.41590248124E-01  6.49660459969E-01  6.57832182582E-01  6.66106692813E-01
  6.74485283569E-01  6.82969264023E-01  6.91559959815E-01  7.00258713257E-01
  7.09066883547E-01  7.17985846981E-01  7.27016997164E-01  7.36161745232E-01
  7.45421520071E-01  7.54797768538E-01  7.64291955693E-01  7.73905565020E-01
  7.83640098667E-01  7.93497077673E-01  8.03478042213E-01  8.13584551831E-01
  8.23818185690E-01  8.34180542817E-01  8.44673242351E-01  8.55297923797E-01
  8.66056247285E-01  8.76949893823E-01  8.87980565566E-01  8.99149986079E-01
  9.10459900606E-01  9.21912076346E-01  9.33508302723E-01  9.45250391671E-01
  9.57140177917E-01  9.69179519262E-01  9.81370296880E-01  9.93714415602E-01
  1.00621380422E+00  1.01887041580E+00  1.03168622795E+00  1.04466324317E+00
  1.05780348916E+00  1.07110901908E+00  1.08458191197E+00  1.09822427300E+00
  1.11203823379E+00  1.12602595283E+00  1.14018961571E+00  1.15453143554E+00
  1.16905365325E+00  1.18375853798E+00  1.19864838739E+00  1.21372552804E+00
  1.22899231578E+00  1.24445113607E+00  1.26010440438E+00  1.27595456656E+00
  1.29200409925E+00  1.30825551020E+00  1.32471133874E+00  1.34137415612E+00
  1.35824656594E+00  1.37533120455E+00  1.39263074146E+00  1.41014787975E+00
  1.42788535652E+00  1.44584594328E+00  1.46403244642E+00  1.48244770760E+00
  1.50109460425E+00  1.51997604999E+00  1.53909499507E+00  1.55845442689E+00
  1.57805737037E+00  1.59790688853E+00  1.61800608290E+00  1.63835809400E+00
  1.65896610190E+00  1.67983332662E+00  1.70096302871E+00  1.72235850974E+00
  1.74402311279E+00  1.76596022300E+00  1.78817326809E+00  1.81066571889E+00
  1.83344108989E+00  1.85650293979E+00  1.87985487205E+00  1.90350053547E+00
  1.92744362471E+00  1.95168788094E+00  1.97623709237E+00  2.00109509487E+00
  2.02626577255E+00  2.05175305838E+00  2.07756093480E+00  2.10369343434E+00
  2.13015464026E+00  2.15694868718E+00  2.18407976171E+00  2.21155210316E+00
  2.23937000411E+00  2.26753781119E+00  2.29605992567E+00  2.32494080418E+00
  2.35418495942E+00  2.38379696085E+00  2.41378143540E+00  2.44414306822E+00
  2.47488660336E+00  2.50601684457E+00  2.53753865601E+00  2.56945696302E+00
  2.60177675292E+00  2.63450307573E+00  2.66764104500E+00  2.70119583861E+00
  2.73517269957E+00  2.76957693682E+00  2.80441392611E+00  2.83968911078E+00
  2.87540800265E+00  2.91157618287E+00  2.94819930280E+00  2.98528308486E+00
  3.02283332348E+00  3.06085588595E+00  3.09935671339E+00  3.13834182161E+00
  3.17781730213E+00  3.21778932307E+00  3.25826413014E+00  3.29924804761E+00
  3.34074747930E+00  3.38276890957E+00  3.42531890438E+00  3.46840411223E+00
  3.51203126527E+00  3.55620718035E+00  3.60093876004E+00  3.64623299373E+00
  3.69209695875E+00  3.73853782143E+00  3.78556283825E+00  3.83317935697E+00
  3.88139481775E+00  3.93021675438E+00  3.97965279537E+00  4.02971066520E+00
  4.08039818553E+00  4.13172327637E+00  4.18369395738E+00  4.23631834909E+00
  4.28960467415E+00  4.34356125867E+00  4.39819653348E+00  4.45351903544E+00
  4.50953740881E+00  4.56626040658E+00  4.62369689183E+00  4.68185583912E+00
  4.74074633591E+00  4.80037758397E+00  4.86075890078E+00  4.92189972107E+00
  4.98380959820E+00  5.04649820571E+00  5.10997533885E+00  5.17425091602E+00
  5.23933498043E+00  5.30523770158E+00  5.37196937692E+00  5.43954043341E+00
  5.50796142915E+00  5.57724305508E+00  5.64739613658E+00  5.71843163521E+00
  5.79036065042E+00  5.86319442127E+00  5.93694432817E+00  6.01162189470E+00
  6.08723878938E+00  6.16380682751E+00  6.24133797300E+00  6.31984434024E+00
  6.39933819602E+00  6.47983196141E+00  6.56133821373E+00  6.64386968849E+00
  6.72743928141E+00  6.81206005040E+00  6.89774521764E+00  6.98450817160E+00
  7.07236246917E+00  7.16132183776E+00  7.25140017747E+00  7.34261156320E+00
  7.43497024693E+00  7.52849065989E+00  7.62318741483E+00  7.71907530831E+00
  7.81616932301E+00  7.91448463008E+00  8.01403659147E+00  8.11484076238E+00
  8.21691289367E+00  8.32026893431E+00  8.42492503391E+00  8.53089754518E+00
  8.63820302655E+00  8.74685824472E+00  8.85688017728E+00  8.96828601539E+00
  9.08109316644E+00  9.19531925677E+00  9.31098213444E+00  9.42809987202E+00
  9.54669076938E+00  9.66677335659E+00  9.78836639681E+00  9.91148888920E+00
  1.00361600719E+01  1.01623994250E+01  1.02902266737E+01  1.04196617913E+01
  1.05507250022E+01  1.06834367853E+01  1.08178178772E+01  1.09538892752E+01
  1.10916722406E+01  1.12311883024E+01  1.13724592602E+01  1.15155071879E+01
  1.16603544370E+01  1.18070236403E+01  1.19555377149E+01  1.21059198667E+01
  1.22581935931E+01  1.24123826872E+01  1.25685112414E+01  1.27266036509E+01
  1.28866846182E+01  1.30487791562E+01  1.32129125925E+01  1.33791105733E+01
  1.35473990673E+01  1.37178043699E+01  1.38903531075E+01  1.40650722409E+01
  1.42419890705E+01  1.44211312399E+01  1.46025267403E+01  1.47862039153E+01
  1.49721914647E+01  1.51605184495E+01  1.53512142962E+01  1.55443088013E+01
  1.57398321363E+01  1.59378148521E+01  1.61382878838E+01  1.63412825559E+01
  1.65468305867E+01  1.67549640934E+01  1.69657155973E+01  1.71791180288E+01
  1.73952047324E+01  1.76140094722E+01  1.78355664367E+01  1.80599102449E+01
  1.82870759507E+01  1.85170990494E+01  1.87500154824E+01  1.89858616436E+01
  1.92246743842E+01  1.94664910193E+01  1.97113493333E+01  1.99592875857E+01
  2.02103445174E+01  2.04645593565E+01  2.07219718247E+01  2.09826221431E+01
  2.12465510389E+01  2.15137997516E+01  2.17844100392E+01  2.20584241852E+01
  2.23358850049E+01  2.26168358520E+01  2.29013206258E+01  2.31893837775E+01
  2.34810703176E+01  2.37764258227E+01  2.40754964427E+01  2.43783289081E+01
  2.46849705369E+01  2.49954692426E+01  2.53098735412E+01  2.56282325590E+01
  2.59505960403E+01  2.62770143551E+01  2.66075385068E+01  2.69422201405E+01
  2.72811115509E+01  2.76242656905E+01  2.79717361779E+01  2.83235773059E+01
  2.86798440505E+01  2.90405920791E+01  2.94058777592E+01  2.97757581676E+01
  3.01502910988E+01  3.05295350744E+01  3.09135493519E+01  3.13023939343E+01
  3.16961295795E+01  3.20948178095E+01  3.24985209200E+01  3.29073019905E+01
  3.33212248940E+01  3.37403543066E+01  3.41647557182E+01  3.45944954424E+01
  3.50296406269E+01  3.54702592640E+01  3.59164202013E+01  3.63681931523E+01
  3.68256487075E+01  3.72888583452E+01  3.77578944429E+01  3.82328302884E+01
  3.87137400915E+01  3.92006989951E+01  3.96937830878E+01  4.01930694149E+01
  4.06986359908E+01  4.12105618113E+01  4.17289268660E+01  4.22538121505E+01
  4.27852996790E+01  4.33234724977E+01  4.38684146971E+01  4.44202114255E+01
  4.49789489023E+01  4.55447144314E+01  4.61175964149E+01  4.66976843665E+01
  4.72850689264E+01  4.78798418745E+01  4.84820961453E+01  4.90919258422E+01
  4.97094262525E+01  5.03346938617E+01  5.09678263692E+01  5.16089227034E+01
  5.22580830367E+01  5.29154088017E+01  5.35810027071E+01  5.42549687532E+01
  5.49374122485E+01  5.56284398262E+01  5.63281594608E+01  5.70366804850E+01
  5.77541136065E+01  5.84805709258E+01  5.92161659532E+01  5.99610136271E+01
  6.07152303313E+01  6.14789339138E+01  6.22522437048E+01  6.30352805356E+01
  6.38281667571E+01  6.46310262596E+01  6.54439844914E+01  6.62671684790E+01
  6.71007068464E+01  6.79447298359E+01  6.87993693275E+01  6.96647588606E+01
  7.05410336541E+01  7.14283306275E+01  7.23267884229E+01  7.32365474262E+01
  7.41577497890E+01  7.50905394511E+01  7.60350621627E+01  7.69914655075E+01
  7.79598989255E+01  7.89405137362E+01  7.99334631628E+01  8.09389023557E+01
  8.19569884167E+01  8.29878804240E+01  8.40317394563E+01  8.50887286190E+01
  8.61590130685E+01  8.72427600392E+01  8.83401388686E+01  8.94513210245E+01
  9.05764801312E+01  9.17157919973E+01  9.28694346424E+01  9.40375883257E+01
  9.52204355735E+01  9.64181612080E+01  9.76309523764E+01  9.88589985797E+01
  1.00102491703E+02
  </PP_R>
  <PP_RAB>
  1.48032786616E-07  1.49894809849E-07  1.51780254451E-07  1.53689415026E-07
  1.55622589885E-07  1.57580081091E-07  1.59562194505E-07  1.61569239836E-07
  1.63601530690E-07  1.65659384615E-07  1.67743123157E-07  1.69853071903E-07
  1.71989560537E-07  1.74152922890E-07  1.76343496991E-07  1.78561625122E-07
  1.80807653871E-07  1.83081934183E-07  1.85384821420E-07  1.87716675413E-07
  1.90077860518E-07  1.92468745676E-07  1.94889704466E-07  1.97341115169E-07
  1.99823360824E-07  2.02336829284E-07  2.04881913286E-07  2.07459010504E-07
  2.10068523615E-07  2.12710860359E-07  2.15386433608E-07  2.18095661426E-07
  2.20838967134E-07  2.23616779381E-07  2.26429532204E-07  2.29277665102E-07
  2.32161623102E-07  2.35081856828E-07  2.38038822572E-07  2.41032982366E-07
  2.44064804055E-07  2.47134761365E-07  2.50243333985E-07  2.53391007635E-07
  2.56578274145E-07  2.59805631533E-07  2.63073584079E-07  2.66382642408E-07
  2.69733323567E-07  2.73126151107E-07  2.76561655163E-07  2.80040372540E-07
  2.83562846796E-07  2.87129628323E-07  2.90741274439E-07  2.94398349470E-07
  2.98101424842E-07  3.01851079169E-07  3.05647898341E-07  3.09492475619E-07
  3.13385411725E-07  3.17327314940E-07  3.21318801194E-07  3.25360494164E-07
  3.29453025373E-07  3.33597034287E-07  3.37793168417E-07  3.42042083417E-07
  3.46344443188E-07  3.50700919983E-07  3.55112194510E-07  3.59578956040E-07
  3.64101902514E-07  3.68681740651E-07  3.73319186059E-07  3.78014963350E-07
  3.82769806248E-07  3.87584457708E-07  3.92459670027E-07  3.97396204968E-07
  4.02394833874E-07  4.07456337792E-07  4.12581507592E-07  4.17771144092E-07
  4.23026058183E-07  4.28347070956E-07  4.33735013831E-07  4.39190728684E-07
  4.44715067982E-07  4.50308894914E-07  4.55973083527E-07  4.61708518862E-07
  4.67516097092E-07  4.73396725664E-07  4.79351323437E-07  4.85380820830E-07
  4.91486159964E-07  4.97668294810E-07  5.03928191339E-07  5.10266827674E-07
  5.16685194239E-07  5.23184293916E-07  5.29765142204E-07  5.36428767373E-07
  5.43176210628E-07  5.50008526272E-07  5.56926781867E-07  5.63932058404E-07
  5.71025450473E-07  5.78208066430E-07  5.85481028574E-07  5.92845473320E-07
  6.00302551377E-07  6.07853427929E-07  6.15499282816E-07  6.23241310719E-07
  6.31080721344E-07  6.39018739615E-07  6.47056605865E-07  6.55195576026E-07
  6.63436921829E-07  6.71781931000E-07  6.80231907465E-07  6.88788171549E-07
  6.97452060187E-07  7.06224927128E-07  7.15108143151E-07  7.24103096276E-07
  7.33211191983E-07  7.42433853430E-07  7.51772521677E-07  7.61228655911E-07
  7.70803733671E-07  7.80499251082E-07  7.90316723089E-07  8.00257683692E-07
  8.10323686187E-07  8.20516303406E-07  8.30837127966E-07  8.41287772519E-07
  8.51869869997E-07  8.62585073876E-07  8.73435058427E-07  8.84421518983E-07
  8.95546172201E-07  9.06810756331E-07  9.18217031486E-07  9.29766779920E-07
  9.41461806306E-07  9.53303938014E-07  9.65295025401E-07  9.77436942101E-07
  9.89731585311E-07  1.00218087610E-06  1.01478675968E-06  1.02755120576E-06
  1.04047620881E-06  1.05356378838E-06  1.06681598944E-06  1.08023488266E-06
  1.09382256479E-06  1.10758115891E-06  1.12151281485E-06  1.13561970944E-06
  1.14990404692E-06  1.16436805925E-06  1.17901400646E-06  1.19384417701E-06
  1.20886088814E-06  1.22406648624E-06  1.23946334722E-06  1.25505387687E-06
  1.27084051124E-06  1.28682571702E-06  1.30301199195E-06  1.31940186514E-06
  1.33599789757E-06  1.35280268238E-06  1.36981884537E-06  1.38704904533E-06
  1.40449597453E-06  1.42216235909E-06  1.44005095940E-06  1.45816457061E-06
  1.47650602300E-06  1.49507818246E-06  1.51388395093E-06  1.53292626684E-06
  1.55220810561E-06  1.57173248005E-06  1.59150244088E-06  1.61152107721E-06
  1.63179151699E-06  1.65231692751E-06  1.67310051591E-06  1.69414552967E-06
  1.71545525712E-06  1.73703302794E-06  1.75888221371E-06  1.78100622840E-06