<PP_INFO>
Generated using ld1 code (trou)
Author: P. Giannozzi Generation date: 1998 ?
Info: K 4s0.25 4p0.05 Rc=3.47 3.69 nlcc rec 0.5 MT BLYP, l=0 local
    1        The Pseudo was generated with a Scalar-Relativistic Calculation
  0.00000000000E+00    Local Potential cutoff radius
nl pn  l   occ               Rcut            Rcut US             E pseu
4S  0  0  0.25      0.00000000000      0.00000000000      0.00000000000
4P  0  1  0.05      0.00000000000      0.00000000000      0.00000000000
</PP_INFO>


<PP_HEADER>
   0                   Version Number
   K                   Element
   NC                  Norm - Conserving pseudopotential
    T                  Nonlinear Core Correction
 SLA  LYP  B88  BLYP   BLYP Exchange-Correlation functional
    1.00000000000      Z valence
    0.00000000000      Total energy
  0.0000000  0.0000000 Suggested cutoff for wfc and rho
    1                  Max angular momentum component
  177                  Number of points in mesh
    2    1             Number of Wavefunctions, Number of Projectors
 Wavefunctions         nl  l   occ
                       4S  0  0.25
                       4P  1  0.05
</PP_HEADER>


<PP_MESH>
  <PP_R>
  9.63980994144E-04  1.02615242677E-03  1.09233357230E-03  1.16278303500E-03
  1.23777609768E-03  1.31760579737E-03  1.40258407033E-03  1.49304297104E-03
  1.58933596960E-03  1.69183933299E-03  1.80095359535E-03  1.91710512302E-03
  2.04074778062E-03  2.17236470452E-03  2.31247019071E-03  2.46161170442E-03
  2.62037201936E-03  2.78937149491E-03  2.96927050020E-03  3.16077199449E-03
  3.36462427404E-03  3.58162389605E-03  3.81261879128E-03  4.05851157728E-03
  4.32026308547E-03  4.59889611555E-03  4.89549943214E-03  5.21123201915E-03
  5.54732760852E-03  5.90509950107E-03  6.28594569825E-03  6.69135436484E-03
  7.12290964403E-03  7.58229784744E-03  8.07131404447E-03  8.59186907652E-03
  9.14599702371E-03  9.73586315302E-03  1.03637723792E-02  1.10321782711E-02
  1.17436926394E-02  1.25010957419E-02  1.33073471476E-02  1.41655973015E-02
  1.50791998347E-02  1.60517246690E-02  1.70869719662E-02  1.81889869777E-02
  1.93620758511E-02  2.06108224567E-02  2.19401062989E-02  2.33551215832E-02
  2.48613975127E-02  2.64648198932E-02  2.81716541326E-02  2.99885697227E-02
  3.19226663007E-02  3.39815013909E-02  3.61731199364E-02  3.85060857340E-02
  4.09895148985E-02  4.36331114832E-02  4.64472053992E-02  4.94427927797E-02
  5.26315789474E-02  5.60260241536E-02  5.96393922667E-02  6.34858026011E-02
  6.75802850888E-02  7.19388390091E-02  7.65784955062E-02  8.15173841386E-02
  8.67748037211E-02  9.23712977348E-02  9.83287346017E-02  1.04670393136E-01
  1.11421053506E-01  1.18607094064E-01  1.26256594419E-01  1.34399445161E-01
  1.43067464656E-01  1.52294523377E-01  1.62116676259E-01  1.72572303576E-01
  1.83702260919E-01  1.95550038839E-01  2.08161932785E-01  2.21587224008E-01
  2.35878372123E-01  2.51091220104E-01  2.67285212483E-01  2.84523627639E-01
  3.02873825053E-01  3.22407508520E-01  3.43201006333E-01  3.65335569537E-01
  3.88897689417E-01  4.13979435471E-01  4.40678815165E-01  4.69100156905E-01
  4.99354517703E-01  5.31560117131E-01  5.65842799267E-01  6.02336524438E-01
  6.41183892669E-01  6.82536700893E-01  7.26556536109E-01  7.73415406778E-01
  8.23296414957E-01  8.76394471769E-01  9.32917059024E-01  9.93085039961E-01
  1.05713352227E+00  1.12531277680E+00  1.19788921545E+00  1.27514643224E+00
  1.35738631143E+00  1.44493020713E+00  1.53812019901E+00  1.63732042900E+00
  1.74291852414E+00  1.85532711129E+00  1.97498542945E+00  2.10236104610E+00
  2.23795168421E+00  2.38228716717E+00  2.53593148901E+00  2.69948501824E+00
  2.87358684385E+00  3.05891727250E+00  3.25620048686E+00  3.46620737539E+00
  3.68975854456E+00  3.92772752543E+00  4.18104418696E+00  4.45069836951E+00
  4.73774375266E+00  5.04330197248E+00  5.36856700435E+00  5.71480982846E+00
  6.08338339617E+00  6.47572791669E+00  6.89337648478E+00  7.33796107128E+00
  7.81121890014E+00  8.31499923659E+00  8.85127061326E+00  9.42212852219E+00
  1.00298036031E+01  1.06766703595E+01  1.13652564374E+01  1.20982525018E+01
  1.28785227507E+01  1.37091161072E+01  1.45932781328E+01  1.55344637098E+01
  1.65363505414E+01  1.76028535220E+01  1.87381400353E+01  1.99466462380E+01
  2.12330943944E+01  2.26025113285E+01  2.40602480668E+01  2.56120007473E+01
  2.72638328773E+01  2.90221990267E+01  3.08939700496E+01  3.28864599317E+01
  3.50074543708E+01  3.72652411985E+01  3.96686427660E+01  4.22270504172E+01
  4.49504611856E+01  4.78495168579E+01  5.09355455571E+01  5.42206060075E+01
  5.77175346541E+01
  </PP_R>
  <PP_RAB>
  6.02488121340E-05  6.41345266730E-05  6.82708482687E-05  7.26739396877E-05
  7.73610061053E-05  8.23503623354E-05  8.76615043959E-05  9.33151856898E-05
  9.93334980997E-05  1.05739958312E-04  1.12559599709E-04  1.19819070189E-04
  1.27546736289E-04  1.35772794032E-04  1.44529386919E-04  1.53850731526E-04
  1.63773251210E-04  1.74335718432E-04  1.85579406262E-04  1.97548249656E-04
  2.10289017127E-04  2.23851493503E-04  2.38288674455E-04  2.53656973580E-04
  2.70016442842E-04  2.87431007222E-04  3.05968714509E-04  3.25702001197E-04
  3.46707975532E-04  3.69068718817E-04  3.92871606141E-04  4.18209647803E-04
  4.45181852752E-04  4.73893615465E-04  5.04457127779E-04  5.36991817283E-04
  5.71624813982E-04  6.08491447064E-04  6.47735773698E-04  6.89511141944E-04
  7.33980789962E-04  7.81318483867E-04  8.31709196726E-04  8.85349831346E-04
  9.42449989672E-04  1.00323279181E-03  1.06793574789E-03  1.13681168611E-03
  1.21012974070E-03  1.28817640354E-03  1.37125664368E-03  1.45969509895E-03
  1.55383734454E-03  1.65405124333E-03  1.76072838329E-03  1.87428560767E-03
  1.99516664379E-03  2.12384383693E-03  2.26081999602E-03  2.40663035838E-03
  2.56184468116E-03  2.72706946770E-03  2.90295033745E-03  3.09017454873E-03
  3.28947368421E-03  3.50162650960E-03  3.72746201667E-03  3.96786266257E-03
  4.22376781805E-03  4.49617743807E-03  4.78615596914E-03  5.09483650866E-03
  5.42342523257E-03  5.77320610842E-03  6.14554591261E-03  6.54189957099E-03
  6.96381584412E-03  7.41294337899E-03  7.89103715121E-03  8.39996532258E-03
  8.94171654098E-03  9.51840771109E-03  1.01322922662E-02  1.07857689735E-02
  1.14813913074E-02  1.22218774274E-02  1.30101207991E-02  1.38492015005E-02
  1.47423982577E-02  1.56932012565E-02  1.67053257802E-02  1.77827267274E-02
  1.89296140658E-02  2.01504692825E-02  2.14500628958E-02  2.28334730960E-02
  2.43061055886E-02  2.58737147169E-02  2.75424259478E-02  2.93187598066E-02
  3.12096573564E-02  3.32225073207E-02  3.53651749542E-02  3.76460327774E-02
  4.00739932918E-02  4.26585438058E-02  4.54097835068E-02  4.83384629236E-02
  5.14560259348E-02  5.47746544856E-02  5.83073161890E-02  6.20678149976E-02
  6.60708451421E-02  7.03320485497E-02  7.48680759655E-02  7.96966520152E-02
  8.48366444645E-02  9.03081379456E-02  9.61325124383E-02  1.02332526812E-01
  1.08932407759E-01  1.15957944456E-01  1.23436589341E-01  1.31397565381E-01
  1.39871980263E-01  1.48892947948E-01  1.58495718063E-01  1.68717813640E-01
  1.79599177741E-01  1.91182329531E-01  2.03512530429E-01  2.16637960962E-01
  2.30609909035E-01  2.45482970339E-01  2.61315261685E-01  2.78168648094E-01
  2.96108984541E-01  3.15206373280E-01  3.35535437772E-01  3.57175614279E-01
  3.80211462260E-01  4.04732994793E-01  4.30836030299E-01  4.58622566955E-01
  4.88201181258E-01  5.19687452287E-01  5.53204413328E-01  5.88883032637E-01
  6.26862725193E-01  6.67291897470E-01  7.10328527338E-01  7.56140781362E-01
  8.04907671922E-01  8.56819756701E-01  9.12079883300E-01  9.70903981863E-01
  1.03352190883E+00  1.10017834512E+00  1.17113375221E+00  1.24666538988E+00
  1.32706839965E+00  1.41265695803E+00  1.50376550417E+00  1.60075004671E+00
  1.70398955483E+00  1.81388743917E+00  1.93087312810E+00  2.05540374573E+00
  2.18796589817E+00  2.32907757491E+00  2.47929017288E+00  2.63919065108E+00
  2.80940382410E+00  2.99059480362E+00  3.18347159732E+00  3.38878787547E+00
  3.60734591588E+00
  </PP_RAB>
</PP_MESH>


<PP_NLCC>
  1.17175780000E-01  1.17175780000E-01  1.17175780000E-01  1.17175770000E-01
  1.17175770000E-01  1.17175760000E-01  1.17175760000E-01  1.17175750000E-01
  1.17175740000E-01  1.17175730000E-01  1.17175720000E-01  1.17175710000E-01
  1.17175700000E-01  1.17175680000E-01  1.17175670000E-01  1.17175650000E-01
  1.17175630000E-01  1.17175600000E-01  1.17175580000E-01  1.17175540000E-01
  1.17175510000E-01  1.17175470000E-01  1.17175420000E-01  1.17175370000E-01
  1.17175310000E-01  1.17175250000E-01  1.17175170000E-01  1.17175090000E-01
  1.17174990000E-01  1.17174880000E-01  1.17174760000E-01  1.17174620000E-01
  1.17174460000E-01  1.17174280000E-01  1.17174080000E-01  1.17173850000E-01
  1.17173590000E-01  1.17173290000E-01  1.17172960000E-01  1.17172580000E-01
  1.17172150000E-01  1.17171660000E-01  1.17171110000E-01  1.17170480000E-01
  1.17169780000E-01  1.17168970000E-01  1.17168060000E-01  1.17167030000E-01
  1.17165860000E-01  1.17164540000E-01  1.17163040000E-01  1.17161340000E-01
  1.17159410000E-01  1.17157230000E-01  1.17154750000E-01  1.17151950000E-01
  1.17148770000E-01  1.17145170000E-01  1.17141090000E-01  1.17136470000E-01
  1.17131230000E-01  1.17125300000E-01  1.17118570000E-01  1.17110950000E-01
  1.17102320000E-01  1.17092530000E-01  1.17081450000E-01  1.17068890000E-01
  1.17054660000E-01  1.17038530000E-01  1.17020260000E-01  1.16999560000E-01
  1.16976100000E-01  1.16949530000E-01  1.16919420000E-01  1.16885310000E-01
  1.16846660000E-01  1.16802870000E-01  1.16753270000E-01  1.16697080000E-01
  1.16633430000E-01  1.16561320000E-01  1.16479650000E-01  1.16387150000E-01
  1.16282380000E-01  1.16163730000E-01  1.16029370000E-01  1.15877230000E-01
  1.15704980000E-01  1.15509980000E-01  1.15289260000E-01  1.15039450000E-01
  1.14756760000E-01  1.14436950000E-01  1.14075190000E-01  1.13666090000E-01
  1.13203580000E-01  1.12680840000E-01  1.12090230000E-01  1.11423220000E-01
  1.10670240000E-01  1.09820660000E-01  1.08862630000E-01  1.07783010000E-01
  1.06567290000E-01  1.05199470000E-01  1.03662000000E-01  1.01935730000E-01
  9.99999120000E-02  9.78322060000E-02  9.54087820000E-02  9.27045130000E-02
  8.96932700000E-02  8.63483710000E-02  8.26432240000E-02  7.85522020000E-02
  7.40518110000E-02  6.91222100000E-02  6.37491450000E-02  5.79263490000E-02
  5.16584730000E-02  4.49645600000E-02  3.78820530000E-02  3.04712610000E-02
  2.28200900000E-02  1.50862940000E-02  9.71527280000E-03  6.08906060000E-03
  3.70990460000E-03  2.19405790000E-03  1.25727910000E-03  6.96704930000E-04
  3.72563180000E-04  1.91860150000E-04  9.49498090000E-05  4.50569050000E-05
  2.04508050000E-05  8.85375400000E-06  3.64469000000E-06  1.42178000000E-06
  5.23663000000E-07  1.81393000000E-07  5.88490000000E-08  1.78040000000E-08
  4.99900000000E-09  1.29600000000E-09  3.09000000000E-10  6.70000000000E-11
  1.30000000000E-11  2.00000000000E-12  0.00000000000E+00  0.00000000000E+00
  0.00000000000E+00  0.00000000000E+00  0.00000000000E+00  0.00000000000E+00
  0.00000000000E+00  0.00000000000E+00  0.00000000000E+00  0.00000000000E+00
  0.00000000000E+00  0.00000000000E+00  0.00000000000E+00  0.00000000000E+00
  0.00000000000E+00  0.00000000000E+00  0.00000000000E+00  0.00000000000E+00
  0.00000000000E+00  0.00000000000E+00  0.00000000000E+00  0.00000000000E+00
  0.00000000000E+00  0.00000000000E+00  0.00000000000E+00  0.00000000000E+00
  0.00000000000E+00
</PP_NLCC>


<PP_LOCAL>
  2.02998710000E+00  2.02998710000E+00  2.02998710000E+00  2.02998700000E+00
  2.02998700000E+00  2.02998700000E+00  2.02998700000E+00  2.02998700000E+00
  2.02998700000E+00  2.02998690000E+00  2.02998690000E+00  2.02998690000E+00
  2.02998680000E+00  2.02998680000E+00  2.02998680000E+00  2.02998670000E+00
  2.02998660000E+00  2.02998660000E+00  2.02998650000E+00  2.02998640000E+00
  2.02998630000E+00  2.02998620000E+00  2.02998610000E+00  2.02998590000E+00
  2.02998580000E+00  2.02998560000E+00  2.02998540000E+00  2.02998520000E+00
  2.02998490000E+00  2.02998460000E+00  2.02998430000E+00  2.02998390000E+00
  2.02998340000E+00  2.02998290000E+00  2.02998240000E+00  2.02998170000E+00
  2.02998100000E+00  2.02998020000E+00  2.02997930000E+00  2.02997830000E+00
  2.02997710000E+00  2.02997570000E+00  2.02997420000E+00  2.02997250000E+00
  2.02997050000E+00  2.02996830000E+00  2.02996580000E+00  2.02996300000E+00
  2.02995970000E+00  2.02995610000E+00  2.02995200000E+00  2.02994730000E+00
  2.02994190000E+00  2.02993590000E+00  2.02992910000E+00  2.02992140000E+00
  2.02991260000E+00  2.02990260000E+00  2.02989140000E+00  2.02987860000E+00
  2.02986410000E+00  2.02984760000E+00  2.02982900000E+00  2.02980780000E+00
  2.02978380000E+00  2.02975660000E+00  2.02972570000E+00  2.02969070000E+00
  2.02965090000E+00  2.02960570000E+00  2.02955440000E+00  2.02949610000E+00
  2.02942990000E+00  2.02935460000E+00  2.02926900000E+00  2.02917150000E+00
  2.02906060000E+00  2.02893420000E+00  2.02879020000E+00  2.02862590000E+00
  2.02843840000E+00  2.02822400000E+00  2.02797890000E+00  2.02769810000E+00
  2.02737620000E+00  2.02700650000E+00  2.02658140000E+00  2.02609170000E+00
  2.02552650000E+00  2.02487290000E+00  2.02411550000E+00  2.02323550000E+00
  2.02221080000E+00  2.02101400000E+00  2.01961260000E+00  2.01796630000E+00
  2.01602640000E+00  2.01373310000E+00  2.01101280000E+00  2.00777500000E+00
  2.00390800000E+00  1.99927360000E+00  1.99370060000E+00  1.98697720000E+00
  1.97884030000E+00  1.96896390000E+00  1.95694430000E+00  1.94228190000E+00
  1.92436050000E+00  1.90242270000E+00  1.87554180000E+00  1.84259260000E+00
  1.80222020000E+00  1.75281270000E+00  1.69248270000E+00  1.61906600000E+00
  1.53015060000E+00  1.42315240000E+00  1.29545390000E+00  1.14461720000E+00
  9.68651440000E-01  7.66234000000E-01  5.36579850000E-01  2.78234880000E-01
  5.61160800000E-03 -2.25841910000E-01 -4.09172650000E-01 -5.50718710000E-01
 -6.27654060000E-01 -6.43724680000E-01 -6.18203440000E-01 -5.79677290000E-01
 -5.43487830000E-01 -5.09951190000E-01 -4.78721040000E-01 -4.49543900000E-01
 -4.22221810000E-01 -3.96600190000E-01 -3.72553140000E-01 -3.49973470000E-01
 -3.28766490000E-01 -3.08846320000E-01 -2.90133840000E-01 -2.72555370000E-01
 -2.56042030000E-01 -2.40529220000E-01 -2.25956290000E-01 -2.12266290000E-01
 -1.99405720000E-01 -1.87324340000E-01 -1.75974940000E-01 -1.65313150000E-01
 -1.55297330000E-01 -1.45888350000E-01 -1.37049420000E-01 -1.28746010000E-01
 -1.20945690000E-01 -1.13617960000E-01 -1.06734190000E-01 -1.00267490000E-01
 -9.41925950000E-02 -8.84857540000E-02 -8.31246730000E-02 -7.80884040000E-02
 -7.33572670000E-02 -6.89127750000E-02 -6.47375610000E-02 -6.08153100000E-02
 -5.71306970000E-02 -5.36693230000E-02 -5.04176630000E-02 -4.73630120000E-02
 -4.44934320000E-02 -4.17977110000E-02 -3.92653160000E-02 -3.68863510000E-02
 -3.46515190000E-02
</PP_LOCAL>


<PP_NONLOCAL>
  <PP_BETA>
    1    1             Beta    L
   149
 -1.16680009061E-07 -1.32215771753E-07 -1.49820097449E-07 -1.69768404880E-07
 -1.92372945540E-07 -2.17987262791E-07 -2.47012102756E-07 -2.79901599415E-07
 -3.17170287251E-07 -3.59401246482E-07 -4.07255257320E-07 -4.61480979584E-07
 -5.22926785404E-07 -5.92554100372E-07 -6.71452211905E-07 -7.60855496106E-07
 -8.62162783743E-07 -9.76959051871E-07 -1.10704030838E-06 -1.25444175427E-06
 -1.42146957176E-06 -1.61073697437E-06 -1.82520511803E-06 -2.06822939717E-06
 -2.34361208742E-06 -2.65566175915E-06 -3.00926043656E-06 -3.40994023228E-06
 -3.86396982264E-06 -4.37845267992E-06 -4.96143831783E-06 -5.62204735541E-06
 -6.37061499265E-06 -7.21885289013E-06 -8.18003183816E-06 -9.26918907299E-06
 -1.05033649692E-05 -1.19018674749E-05 -1.34865760947E-05 -1.52822829029E-05
 -1.73170806229E-05 -1.96228016747E-05 -2.22355189437E-05 -2.51961054150E-05
 -2.85508742870E-05 -3.23523066910E-05 -3.66598714526E-05 -4.15409508799E-05
 -4.70718972201E-05 -5.33392302925E-05 -6.04409798339E-05 -6.84882272612E-05
 -7.76068390943E-05 -8.79394349683E-05 -9.96476094605E-05 -1.12914465105E-04
 -1.27947462429E-04 -1.44981666885E-04 -1.64283434527E-04 -1.86154517252E-04
 -2.10936826271E-04 -2.39017721727E-04 -2.70836130007E-04 -3.06889205754E-04
 -3.47740309624E-04 -3.94027569803E-04 -4.46473938897E-04 -5.05898328756E-04
 -5.73228364983E-04 -6.49514799130E-04 -7.35947726860E-04 -8.33874952034E-04
 -9.44822899299E-04 -1.07051996514E-03 -1.21292329422E-03 -1.37424845926E-03
 -1.55700372080E-03 -1.76402778572E-03 -1.99853322803E-03 -2.26415469008E-03
 -2.56500353076E-03 -2.90572932465E-03 -3.29158786908E-03 -3.72851942169E-03
 -4.22323374762E-03 -4.78330634783E-03 -5.41728526003E-03 -6.13480908574E-03
 -6.94673595238E-03 -7.86528736841E-03 -8.90420037184E-03 -1.00788928415E-02
 -1.14066413779E-02 -1.29067556500E-02 -1.46007676499E-02 -1.65125979164E-02
 -1.86687150483E-02 -2.10982488101E-02 -2.38330405899E-02 -2.69075902804E-02
 -3.03588533345E-02 -3.42258079444E-02 -3.85486853853E-02 -4.33677734489E-02
 -4.87215283770E-02 -5.46438826896E-02 -6.11603473954E-02 -6.82825879146E-02
 -7.60010670528E-02 -8.42751984844E-02 -9.30205390033E-02 -1.02092621399E-01
 -1.11267100552E-01 -1.20216560479E-01 -1.28485051803E-01 -1.35462776625E-01
 -1.40365508840E-01 -1.42226249733E-01 -1.39910433064E-01 -1.32170891905E-01
 -1.17764006839E-01 -9.56531626952E-02 -6.53287384598E-02 -2.72685300590E-02
  1.64620434511E-02  6.15475216249E-02  1.00955256080E-01  1.25277152798E-01
  1.25049105607E-01  9.63705640233E-02  4.91453824181E-02  9.99759054947E-03
  0.00000000000E+00  0.00000000000E+00  0.00000000000E+00  0.00000000000E+00
  0.00000000000E+00  0.00000000000E+00  0.00000000000E+00  0.00000000000E+00
  0.00000000000E+00  0.00000000000E+00  0.00000000000E+00  0.00000000000E+00
  0.00000000000E+00  0.00000000000E+00  0.00000000000E+00  0.00000000000E+00
  0.00000000000E+00
  </PP_BETA>
  <PP_DIJ>
    1                  Number of nonzero Dij
    1    1  6.96688684545E+01
  </PP_DIJ>
</PP_NONLOCAL>


<PP_PSWFC>
4S    0  0.25          Wavefunction
  6.37112460000E-05  6.78202680000E-05  7.21943000000E-05  7.68504320000E-05
  8.18068620000E-05  8.70829540000E-05  9.26993260000E-05  9.86779240000E-05
  1.05042110000E-04  1.11816750000E-04  1.19028330000E-04  1.26705010000E-04
  1.34876790000E-04  1.43575620000E-04  1.52835470000E-04  1.62692540000E-04
  1.73185350000E-04  1.84354880000E-04  1.96244800000E-04  2.08901570000E-04
  2.22374640000E-04  2.36716660000E-04  2.51983680000E-04  2.68235360000E-04
  2.85535210000E-04  3.03950840000E-04  3.23554210000E-04  3.44421940000E-04
  3.66635580000E-04  3.90281940000E-04  4.15453440000E-04  4.42248470000E-04
  4.70771740000E-04  5.01134750000E-04  5.33456170000E-04  5.67862360000E-04
  6.04487800000E-04  6.43475690000E-04  6.84978440000E-04  7.29158330000E-04
  7.76188100000E-04  8.26251670000E-04  8.79544840000E-04  9.36276040000E-04
  9.96667210000E-04  1.06095460000E-03  1.12938990000E-03  1.20224070000E-03
  1.27979250000E-03  1.36234870000E-03  1.45023280000E-03  1.54378910000E-03
  1.64338430000E-03  1.74940880000E-03  1.86227870000E-03  1.98243680000E-03
  2.11035500000E-03  2.24653610000E-03  2.39151550000E-03  2.54586390000E-03
  2.71018940000E-03  2.88514000000E-03  3.07140670000E-03  3.26972590000E-03
  3.48088320000E-03  3.70571630000E-03  3.94511910000E-03  4.20004540000E-03
  4.47151390000E-03  4.76061190000E-03  5.06850180000E-03  5.39642560000E-03
  5.74571200000E-03  6.11778270000E-03  6.51416040000E-03  6.93647690000E-03
  7.38648240000E-03  7.86605620000E-03  8.37721800000E-03  8.92214110000E-03
  9.50316720000E-03  1.01228230000E-02  1.07838400000E-02  1.14891740000E-02
  1.22420330000E-02  1.30459050000E-02  1.39045880000E-02  1.48222350000E-02
  1.58033930000E-02  1.68530580000E-02  1.79767390000E-02  1.91805260000E-02
  2.04711810000E-02  2.18562380000E-02  2.33441240000E-02  2.49443050000E-02
  2.66674630000E-02  2.85256980000E-02  3.05327860000E-02  3.27044750000E-02
  3.50588580000E-02  3.76168120000E-02  4.04025360000E-02  4.34442030000E-02
  4.67747550000E-02  5.04328670000E-02  5.44641130000E-02  5.89223850000E-02
  6.38715980000E-02  6.93877380000E-02  7.55612850000E-02  8.25000430000E-02
  9.03323580000E-02  9.92106510000E-02  1.09315030000E-01  1.20856550000E-01
  1.34079320000E-01  1.49259970000E-01  1.66702470000E-01  1.86724620000E-01
  2.09631840000E-01  2.35672300000E-01  2.64967660000E-01  2.97416540000E-01
  3.32577950000E-01  3.69560380000E-01  4.06949140000E-01  4.42826410000E-01
  4.74994450000E-01  5.01380520000E-01  5.20436050000E-01  5.31367000000E-01
  5.33993580000E-01  5.28482740000E-01  5.15273230000E-01  4.95053990000E-01
  4.68677600000E-01  4.37121910000E-01  4.01472180000E-01  3.62901620000E-01
  3.22635980000E-01  2.81904300000E-01  2.41879380000E-01  2.03618840000E-01
  1.68012150000E-01  1.35741560000E-01  1.07260890000E-01  8.27931330000E-02
  6.23449060000E-02  4.57354240000E-02  3.26363750000E-02  2.26183000000E-02
  1.51982700000E-02  9.88379880000E-03  6.20890310000E-03  3.75988970000E-03
  2.18988140000E-03  1.22388860000E-03  6.53922280000E-04  3.32751370000E-04
  1.60947150000E-04  7.38574470000E-05  3.20552650000E-05  1.31100640000E-05
  5.03273880000E-06  1.80581160000E-06  6.02921350000E-07  1.86417070000E-07
  5.31072980000E-08  1.38633670000E-08  3.29877710000E-09  7.07810420000E-10
  1.32660700000E-10  0.00000000000E+00  0.00000000000E+00  0.00000000000E+00
  0.00000000000E+00
4P    1  0.05          Wavefunction
  5.11888280000E-08  5.80045410000E-08  6.57277560000E-08  7.44793050000E-08
  8.43961700000E-08  9.56334580000E-08  1.08366980000E-07  1.22795970000E-07
  1.39146160000E-07  1.57673360000E-07  1.78667450000E-07  2.02456880000E-07
  2.29413850000E-07  2.59960130000E-07  2.94573610000E-07  3.33795840000E-07
  3.78240490000E-07  4.28602890000E-07  4.85671000000E-07  5.50337670000E-07
  6.23614650000E-07  7.06648380000E-07  8.00737950000E-07  9.07355450000E-07
  1.02816890000E-06  1.16506860000E-06  1.32019630000E-06  1.49597900000E-06
  1.69516690000E-06  1.92087630000E-06  2.17663860000E-06  2.46645520000E-06
  2.79486030000E-06  3.16699180000E-06  3.58867170000E-06  4.06649730000E-06
  4.60794410000E-06  5.22148280000E-06  5.91671220000E-06  6.70450880000E-06
  7.59719740000E-06  8.60874330000E-06  9.75497160000E-06  1.10538140000E-05
  1.25255890000E-05  1.41933200000E-05  1.60830970000E-05  1.82244810000E-05
  2.06509700000E-05  2.34005190000E-05  2.65161360000E-05  3.00465540000E-05
  3.40469930000E-05  3.85800190000E-05  4.37165270000E-05  4.95368460000E-05
  5.61319930000E-05  6.36050940000E-05  7.20729980000E-05  8.16680940000E-05
  9.25403800000E-05  1.04859800000E-04  1.18818910000E-04  1.34635830000E-04
  1.52557710000E-04  1.72864510000E-04  1.95873410000E-04  2.21943680000E-04
  2.51482310000E-04  2.84950300000E-04  3.22869790000E-04  3.65832140000E-04
  4.14507080000E-04  4.69653010000E-04  5.32128710000E-04  6.02906460000E-04
  6.83086980000E-04  7.73916220000E-04  8.76804300000E-04  9.93346930000E-04
  1.12534940000E-03  1.27485400000E-03  1.44416980000E-03  1.63590800000E-03
  1.85301940000E-03  2.09883810000E-03  2.37712940000E-03  2.69214410000E-03
  3.04867800000E-03  3.45213940000E-03  3.90862230000E-03  4.42498890000E-03
  5.00895960000E-03  5.66921110000E-03  6.41548450000E-03  7.25870140000E-03
  8.21108850000E-03  9.28631060000E-03  1.04996100000E-02  1.18679490000E-02
  1.34101570000E-02  1.51470750000E-02  1.71016870000E-02  1.92992480000E-02
  2.17673740000E-02  2.45361170000E-02  2.76379790000E-02  3.11078760000E-02
  3.49830380000E-02  3.93028230000E-02  4.41084650000E-02  4.94427570000E-02
  5.53497150000E-02  6.18742980000E-02  6.90623270000E-02  7.69607990000E-02
  8.56189040000E-02  9.50901480000E-02  1.05436070000E-01  1.16732050000E-01
  1.29075640000E-01  1.42597270000E-01  1.57472400000E-01  1.73932110000E-01
  1.92266830000E-01  2.12814330000E-01  2.35906090000E-01  2.61741680000E-01
  2.90199640000E-01  3.20589930000E-01  3.51432100000E-01  3.80580630000E-01
  4.05935610000E-01  4.26336090000E-01  4.41454760000E-01  4.51002230000E-01
  4.54759120000E-01  4.52636300000E-01  4.44662240000E-01  4.31022440000E-01
  4.12081600000E-01  3.88389490000E-01  3.60669770000E-01  3.29791730000E-01
  2.96727870000E-01  2.62503120000E-01  2.28141020000E-01  1.94611050000E-01
  1.62779160000E-01  1.33364510000E-01  1.06906960000E-01  8.37489640000E-02
  6.40340730000E-02  4.77215270000E-02  3.46145470000E-02  2.43984160000E-02
  1.66817570000E-02  1.10437300000E-02  7.05398000000E-03  4.33416560000E-03
  2.56001700000E-03  1.45216400000E-03  7.89270520000E-04  4.09889940000E-04
  2.02791310000E-04  9.52775810000E-05  4.23655660000E-05  1.77635750000E-05
  6.99606410000E-06  2.57716120000E-06  8.84144740000E-07  2.80678370000E-07
  8.16821220000E-08  0.00000000000E+00  0.00000000000E+00  0.00000000000E+00
  0.00000000000E+00
</PP_PSWFC>


<PP_RHOATOM>
  1.01478084773E-09  1.14989735612E-09  1.30300445413E-09  1.47649750200E-09
  1.67309102371E-09  1.89586067663E-09  2.14829184738E-09  2.43433392518E-09
  2.75846218640E-09  3.12574763819E-09  3.54193743175E-09  4.01354193921E-09
  4.54793975171E-09  5.15349304356E-09  5.83967456121E-09  6.61722121390E-09
  7.49829851695E-09  8.49668962998E-09  9.62801717558E-09  1.09099816307E-08
  1.23626395735E-08  1.40087192480E-08  1.58739758056E-08  1.79875932533E-08
  2.03826418940E-08  2.30965961534E-08  2.61719188481E-08  2.96567300860E-08
  3.36055558100E-08  3.80801826608E-08  4.31506270897E-08  4.88962314744E-08
  5.54068983579E-08  6.27845109062E-08  7.11445152560E-08  8.06177417962E-08
  9.13524367447E-08  1.03516604099E-07  1.17300616190E-07  1.32920215074E-07
  1.50619877516E-07  1.70676661068E-07  1.93404539366E-07  2.19159315110E-07
  2.48344226391E-07  2.81416238332E-07  3.18893319856E-07  3.61362281770E-07
  4.09488533892E-07  4.64025874312E-07  5.25828948822E-07  5.95866336090E-07
  6.75235949258E-07  7.65182208273E-07  8.67116045855E-07  9.82636611454E-07
  1.11355709654E-06  1.26193339255E-06  1.43009632254E-06  1.62068923321E-06
  1.83670983206E-06  2.08155798378E-06  2.35909067587E-06  2.67368320562E-06
  3.03030065575E-06  3.43457743096E-06  3.89290949793E-06  4.41255829037E-06
  5.00177130709E-06  5.66991624928E-06  6.42763986922E-06  7.28704397182E-06
  8.26189240270E-06  9.36784498859E-06  1.06227294774E-05  1.20468527560E-05
  1.36633609525E-05  1.54986573512E-05  1.75828846439E-05  1.99504873582E-05
  2.26408672714E-05  2.56991490084E-05  2.91770826070E-05  3.31340895498E-05
  3.76385270381E-05  4.27691653858E-05  4.86169290717E-05  5.52870445916E-05
  6.29015294555E-05  7.16022543097E-05  8.15546526827E-05  9.29521707474E-05
  1.06021796697E-04  1.21030782603E-04  1.38294953400E-04  1.58189025284E-04
  1.81159494432E-04  2.07740639825E-04  2.38574845738E-04  2.74438081930E-04
  3.16272496604E-04  3.65227830314E-04  4.22714613720E-04  4.90472742245E-04
  5.70660354870E-04  6.65969570332E-04  7.79777795379E-04  9.16346860984E-04
  1.08108590515E-03  1.28090014098E-03  1.52465478195E-03  1.82379358474E-03
  2.19316327299E-03  2.65210975561E-03  3.22592419651E-03  3.94772464861E-03
  4.86084584902E-03  6.02174147343E-03  7.50326661888E-03  9.39783950340E-03
  1.18194031275E-02  1.49020573174E-02  1.87918430496E-02  2.36267685108E-02
  2.95003499025E-02  3.64082155691E-02  4.41844848016E-02  5.24492427008E-02
  6.06157234355E-02  6.79845016197E-02  7.38886465804E-02  7.78298029688E-02
  7.95264718436E-02  7.89116247013E-02  7.61207406450E-02  7.14397638270E-02
  6.52549660466E-02  5.80128720544E-02  5.01812032126E-02  4.22134136388E-02
  3.45140561506E-02  2.74098283867E-02  2.11305427669E-02  1.58032872596E-02
  1.14593920786E-02  8.05183717830E-03  5.47864088123E-03  3.60734875709E-03
  2.29657457255E-03  1.41223687849E-03  8.37738148107E-04  4.78591322276E-04
  2.62764977997E-04  1.38289576640E-04  6.95459626271E-05  3.32983278045E-05
  1.51129459669E-05  6.47267444195E-06  2.59483527909E-06  9.66930440970E-07
  3.34160348288E-07  1.06802744764E-07  3.14042826906E-08  8.44345659018E-09
  2.06254788553E-09  4.54706110944E-10  8.98329376636E-11  1.57859176700E-11
  2.44795074084E-12  3.32136040775E-13  3.90883165461E-14  3.93914261819E-15
  3.33602852436E-16  0.00000000000E+00  0.00000000000E+00  0.00000000000E+00
  0.00000000000E+00
</PP_RHOATOM>
