<PP_INFO>
Generated using "atomic" code by A. Dal Corso  (espresso distribution)     
Author:  Matthias Timmer   Generation date: 30Sep2008
K_PBE                                                                      
    1        The Pseudo was generated with a Scalar-Relativistic Calculation
   -1 3.0000000E+00    L component and cutoff radius for Local Potential
nl pn  l   occ               Rcut            Rcut US             E pseu
4S  1  0  1.00      3.00000000000      3.00000000000     -0.17044037168
4P  2  1  0.00      3.50000000000      3.50000000000     -0.05913277354
</PP_INFO>


<PP_HEADER>
   0                   Version Number
   K                   Element
   NC                  Norm - Conserving pseudopotential
    T                  Nonlinear Core Correction
 SLA  PW   PBX  PBC    PBE  Exchange-Correlation functional
    1.00000000000      Z valence
   -0.31591824382      Total energy
  0.0000000  0.0000000 Suggested cutoff for wfc and rho
    1                  Max angular momentum component
 1165                  Number of points in mesh
    2    2             Number of Wavefunctions, Number of Projectors
 Wavefunctions         nl  l   occ
                       4S  0  1.00
                       4P  1  0.00
</PP_HEADER>


<PP_MESH>
  <PP_R>
  4.79937876608E-05  4.85974751931E-05  4.92087561798E-05  4.98277261348E-05
  5.04544817734E-05  5.10891210274E-05  5.17317430605E-05  5.23824482837E-05
  5.30413383710E-05  5.37085162753E-05  5.43840862446E-05  5.50681538380E-05
  5.57608259425E-05  5.64622107895E-05  5.71724179718E-05  5.78915584607E-05
  5.86197446234E-05  5.93570902405E-05  6.01037105237E-05  6.08597221339E-05
  6.16252431995E-05  6.24003933348E-05  6.31852936585E-05  6.39800668128E-05
  6.47848369828E-05  6.55997299154E-05  6.64248729392E-05  6.72603949845E-05
  6.81064266035E-05  6.89630999901E-05  6.98305490014E-05  7.07089091781E-05
  7.15983177657E-05  7.24989137361E-05  7.34108378093E-05  7.43342324752E-05
  7.52692420162E-05  7.62160125294E-05  7.71746919496E-05  7.81454300725E-05
  7.91283785778E-05  8.01236910532E-05  8.11315230184E-05  8.21520319491E-05
  8.31853773019E-05  8.42317205392E-05  8.52912251542E-05  8.63640566966E-05
  8.74503827986E-05  8.85503732009E-05  8.96641997791E-05  9.07920365709E-05
  9.19340598032E-05  9.30904479194E-05  9.42613816074E-05  9.54470438281E-05
  9.66476198436E-05  9.78632972463E-05  9.90942659884E-05  1.00340718411E-04
  1.01602849275E-04  1.02880855791E-04  1.04174937650E-04  1.05485297055E-04
  1.06812138752E-04  1.08155670064E-04  1.09516100918E-04  1.10893643887E-04
  1.12288514213E-04  1.13700929847E-04  1.15131111483E-04  1.16579282590E-04
  1.18045669447E-04  1.19530501179E-04  1.21034009796E-04  1.22556430223E-04
  1.24098000342E-04  1.25658961025E-04  1.27239556177E-04  1.28840032769E-04
  1.30460640877E-04  1.32101633726E-04  1.33763267725E-04  1.35445802506E-04
  1.37149500969E-04  1.38874629321E-04  1.40621457116E-04  1.42390257300E-04
  1.44181306251E-04  1.45994883825E-04  1.47831273396E-04  1.49690761905E-04
  1.51573639899E-04  1.53480201584E-04  1.55410744862E-04  1.57365571385E-04
  1.59344986599E-04  1.61349299791E-04  1.63378824139E-04  1.65433876762E-04
  1.67514778764E-04  1.69621855291E-04  1.71755435578E-04  1.73915853001E-04
  1.76103445130E-04  1.78318553781E-04  1.80561525068E-04  1.82832709461E-04
  1.85132461837E-04  1.87461141537E-04  1.89819112422E-04  1.92206742929E-04
  1.94624406131E-04  1.97072479792E-04  1.99551346429E-04  2.02061393370E-04
  2.04603012815E-04  2.07176601896E-04  2.09782562744E-04  2.12421302543E-04
  2.15093233603E-04  2.17798773419E-04  2.20538344736E-04  2.23312375618E-04
  2.26121299513E-04  2.28965555322E-04  2.31845587464E-04  2.34761845950E-04
  2.37714786453E-04  2.40704870375E-04  2.43732564923E-04  2.46798343180E-04
  2.49902684180E-04  2.53046072982E-04  2.56229000749E-04  2.59451964818E-04
  2.62715468785E-04  2.66020022578E-04  2.69366142541E-04  2.72754351511E-04
  2.76185178904E-04  2.79659160793E-04  2.83176839995E-04  2.86738766155E-04
  2.90345495830E-04  2.93997592579E-04  2.97695627050E-04  3.01440177069E-04
  3.05231827729E-04  3.09071171482E-04  3.12958808235E-04  3.16895345439E-04
  3.20881398185E-04  3.24917589302E-04  3.29004549454E-04  3.33142917236E-04
  3.37333339277E-04  3.41576470338E-04  3.45872973417E-04  3.50223519853E-04
  3.54628789426E-04  3.59089470468E-04  3.63606259971E-04  3.68179863692E-04
  3.72810996266E-04  3.77500381316E-04  3.82248751569E-04  3.87056848967E-04
  3.91925424785E-04  3.96855239749E-04  4.01847064151E-04  4.06901677974E-04
  4.12019871012E-04  4.17202442993E-04  4.22450203705E-04  4.27763973121E-04
  4.33144581527E-04  4.38592869656E-04  4.44109688813E-04  4.49695901013E-04
  4.55352379112E-04  4.61080006946E-04  4.66879679470E-04  4.72752302893E-04
  4.78698794826E-04  4.84720084419E-04  4.90817112512E-04  4.96990831777E-04
  5.03242206871E-04  5.09572214583E-04  5.15981843991E-04  5.22472096611E-04
  5.29043986560E-04  5.35698540707E-04  5.42436798842E-04  5.49259813830E-04
  5.56168651782E-04  5.63164392217E-04  5.70248128233E-04  5.77420966681E-04
  5.84684028329E-04  5.92038448045E-04  5.99485374974E-04  6.07025972713E-04
  6.14661419494E-04  6.22392908374E-04  6.30221647411E-04  6.38148859863E-04
  6.46175784372E-04  6.54303675162E-04  6.62533802233E-04  6.70867451559E-04
  6.79305925288E-04  6.87850541951E-04  6.96502636660E-04  7.05263561323E-04
  7.14134684853E-04  7.23117393380E-04  7.32213090470E-04  7.41423197346E-04
  7.50749153105E-04  7.60192414947E-04  7.69754458400E-04  7.79436777553E-04
  7.89240885288E-04  7.99168313518E-04  8.09220613422E-04  8.19399355694E-04
  8.29706130782E-04  8.40142549141E-04  8.50710241482E-04  8.61410859030E-04
  8.72246073777E-04  8.83217578747E-04  8.94327088262E-04  9.05576338203E-04
  9.16967086289E-04  9.28501112348E-04  9.40180218595E-04  9.52006229915E-04
  9.63980994144E-04  9.76106382365E-04  9.88384289194E-04  1.00081663308E-03
  1.01340535660E-03  1.02615242677E-03  1.03905983534E-03  1.05212959913E-03
  1.06536376031E-03  1.07876438674E-03  1.09233357230E-03  1.10607343721E-03
  1.11998612834E-03  1.13407381958E-03  1.14833871216E-03  1.16278303500E-03
  1.17740904506E-03  1.19221902768E-03  1.20721529694E-03  1.22240019606E-03
  1.23777609768E-03  1.25334540435E-03  1.26911054878E-03  1.28507399432E-03
  1.30123823528E-03  1.31760579737E-03  1.33417923804E-03  1.35096114693E-03
  1.36795414625E-03  1.38516089119E-03  1.40258407033E-03  1.42022640609E-03
  1.43809065512E-03  1.45617960874E-03  1.47449609338E-03  1.49304297104E-03
  1.51182313970E-03  1.53083953380E-03  1.55009512469E-03  1.56959292110E-03
  1.58933596960E-03  1.60932735507E-03  1.62957020122E-03  1.65006767103E-03
  1.67082296727E-03  1.69183933299E-03  1.71312005206E-03  1.73466844962E-03
  1.75648789265E-03  1.77858179049E-03  1.80095359535E-03  1.82360680288E-03
  1.84654495268E-03  1.86977162888E-03  1.89329046071E-03  1.91710512302E-03
  1.94121933691E-03  1.96563687027E-03  1.99036153839E-03  2.01539720454E-03
  2.04074778062E-03  2.06641722768E-03  2.09240955664E-03  2.11872882885E-03
  2.14537915676E-03  2.17236470452E-03  2.19968968868E-03  2.22735837883E-03
  2.25537509827E-03  2.28374422464E-03  2.31247019071E-03  2.34155748494E-03
  2.37101065229E-03  2.40083429488E-03  2.43103307272E-03  2.46161170442E-03
  2.49257496795E-03  2.52392770140E-03  2.55567480368E-03  2.58782123536E-03
  2.62037201936E-03  2.65333224183E-03  2.68670705285E-03  2.72050166732E-03
  2.75472136571E-03  2.78937149491E-03  2.82445746909E-03  2.85998477049E-03
  2.89595895034E-03  2.93238562966E-03  2.96927050020E-03  3.00661932530E-03
  3.04443794078E-03  3.08273225589E-03  3.12150825418E-03  3.16077199449E-03
  3.20052961185E-03  3.24078731848E-03  3.28155140472E-03  3.32282824004E-03
  3.36462427404E-03  3.40694603742E-03  3.44980014305E-03  3.49319328698E-03
  3.53713224946E-03  3.58162389605E-03  3.62667517867E-03  3.67229313665E-03
  3.71848489792E-03  3.76525768001E-03  3.81261879128E-03  3.86057563199E-03
  3.90913569549E-03  3.95830656940E-03  4.00809593677E-03  4.05851157728E-03
  4.10956136848E-03  4.16125328701E-03  4.21359540983E-03  4.26659591550E-03
  4.32026308547E-03  4.37460530533E-03  4.42963106617E-03  4.48534896588E-03
  4.54176771049E-03  4.59889611555E-03  4.65674310748E-03  4.71531772499E-03
  4.77462912050E-03  4.83468656151E-03  4.89549943214E-03  4.95707723451E-03
  5.01942959029E-03  5.08256624216E-03  5.14649705533E-03  5.21123201915E-03
  5.27678124857E-03  5.34315498579E-03  5.41036360186E-03  5.47841759824E-03
  5.54732760852E-03  5.61710440002E-03  5.68775887552E-03  5.75930207491E-03
  5.83174517696E-03  5.90509950107E-03  5.97937650899E-03  6.05458780665E-03
  6.13074514597E-03  6.20786042670E-03  6.28594569825E-03  6.36501316160E-03
  6.44507517121E-03  6.52614423693E-03  6.60823302596E-03  6.69135436484E-03
  6.77552124146E-03  6.86074680706E-03  6.94704437831E-03  7.03442743937E-03
  7.12290964403E-03  7.21250481782E-03  7.30322696016E-03  7.39509024656E-03
  7.48810903087E-03  7.58229784744E-03  7.67767141349E-03  7.77424463131E-03
  7.87203259067E-03  7.97105057113E-03  8.07131404447E-03  8.17283867705E-03
  8.27564033230E-03  8.37973507318E-03  8.48513916473E-03  8.59186907652E-03
  8.69994148535E-03  8.80937327773E-03  8.92018155260E-03  9.03238362400E-03
  9.14599702371E-03  9.26103950406E-03  9.37752904068E-03  9.49548383529E-03
  9.61492231856E-03  9.73586315302E-03  9.85832523589E-03  9.98232770214E-03
  1.01078899274E-02  1.02350315310E-02  1.03637723792E-02  1.04941325878E-02
  1.06261325260E-02  1.07597928191E-02  1.08951343516E-02  1.10321782711E-02
  1.11709459909E-02  1.13114591937E-02  1.14537398350E-02  1.15978101465E-02
  1.17436926394E-02  1.18914101082E-02  1.20409856340E-02  1.21924425883E-02
  1.23458046365E-02  1.25010957419E-02  1.26583401689E-02  1.28175624873E-02
  1.29787875759E-02  1.31420406265E-02  1.33073471476E-02  1.34747329688E-02
  1.36442242445E-02  1.38158474580E-02  1.39896294257E-02  1.41655973015E-02
  1.43437785807E-02  1.45242011045E-02  1.47068930643E-02  1.48918830060E-02
  1.50791998347E-02  1.52688728191E-02  1.54609315960E-02  1.56554061748E-02
  1.58523269427E-02  1.60517246690E-02  1.62536305099E-02  1.64580760136E-02
  1.66650931252E-02  1.68747141915E-02  1.70869719662E-02  1.73018996151E-02
  1.75195307210E-02  1.77398992891E-02  1.79630397527E-02  1.81889869777E-02
  1.84177762690E-02  1.86494433753E-02  1.88840244951E-02  1.91215562821E-02
  1.93620758511E-02  1.96056207839E-02  1.98522291349E-02  2.01019394370E-02
  2.03547907081E-02  2.06108224567E-02  2.08700746882E-02  2.11325879113E-02
  2.13984031442E-02  2.16675619212E-02  2.19401062989E-02  2.22160788627E-02
  2.24955227341E-02  2.27784815767E-02  2.30649996034E-02  2.33551215832E-02
  2.36488928483E-02  2.39463593010E-02  2.42475674210E-02  2.45525642728E-02
  2.48613975127E-02  2.51741153965E-02  2.54907667871E-02  2.58114011619E-02
  2.61360686206E-02  2.64648198932E-02  2.67977063478E-02  2.71347799985E-02
  2.74760935137E-02  2.78217002245E-02  2.81716541326E-02  2.85260099189E-02
  2.88848229523E-02  2.92481492981E-02  2.96160457267E-02  2.99885697227E-02
  3.03657794937E-02  3.07477339796E-02  3.11344928614E-02  3.15261165711E-02
  3.19226663007E-02  3.23242040118E-02  3.27307924455E-02  3.31424951322E-02
  3.35593764011E-02  3.39815013909E-02  3.44089360595E-02  3.48417471943E-02
  3.52800024229E-02  3.57237702238E-02  3.61731199364E-02  3.66281217726E-02
  3.70888468273E-02  3.75553670898E-02  3.80277554548E-02  3.85060857340E-02
  3.89904326675E-02  3.94808719353E-02  3.99774801697E-02  4.04803349668E-02
  4.09895148985E-02  4.15050995253E-02  4.20271694084E-02  4.25558061222E-02
  4.30910922673E-02  4.36331114832E-02  4.41819484615E-02  4.47376889592E-02
  4.53004198118E-02  4.58702289472E-02  4.64472053992E-02  4.70314393215E-02
  4.76230220019E-02  4.82220458764E-02  4.88286045436E-02  4.94427927797E-02
  5.00647065527E-02  5.06944430379E-02  5.13321006331E-02  5.19777789734E-02
  5.26315789474E-02  5.32936027127E-02  5.39639537118E-02  5.46427366885E-02
  5.53300577040E-02  5.60260241536E-02  5.67307447834E-02  5.74443297075E-02
  5.81668904250E-02  5.88985398375E-02  5.96393922667E-02  6.03895634722E-02
  6.11491706699E-02  6.19183325499E-02  6.26971692954E-02  6.34858026011E-02
  6.42843556926E-02  6.50929533455E-02  6.59117219048E-02  6.67407893048E-02
  6.75802850888E-02  6.84303404299E-02  6.92910881509E-02  7.01626627454E-02
  7.10452003987E-02  7.19388390091E-02  7.28437182095E-02  7.37599793891E-02
  7.46877657154E-02  7.56272221572E-02  7.65784955062E-02  7.75417344010E-02
  7.85170893495E-02  7.95047127530E-02  8.05047589297E-02  8.15173841386E-02
  8.25427466047E-02  8.35810065429E-02  8.46323261835E-02  8.56968697971E-02
  8.67748037211E-02  8.78662963846E-02  8.89715183357E-02  9.00906422676E-02
  9.12238430457E-02  9.23712977348E-02  9.35331856271E-02  9.47096882699E-02
  9.59009894942E-02  9.71072754433E-02  9.83287346017E-02  9.95655578249E-02
  1.00817938369E-01  1.02086071921E-01  1.03370156630E-01  1.04670393136E-01
  1.05986984604E-01  1.07320136753E-01  1.08670057893E-01  1.10036958950E-01
  1.11421053506E-01  1.12822557828E-01  1.14241690904E-01  1.15678674477E-01
  1.17133733079E-01  1.18607094064E-01  1.20098987649E-01  1.21609646945E-01
  1.23139307996E-01  1.24688209814E-01  1.26256594419E-01  1.27844706874E-01
  1.29452795324E-01  1.31081111037E-01  1.32729908440E-01  1.34399445161E-01
  1.36089982069E-01  1.37801783314E-01  1.39535116368E-01  1.41290252067E-01
  1.43067464656E-01  1.44867031827E-01  1.46689234767E-01  1.48534358198E-01
  1.50402690424E-01  1.52294523377E-01  1.54210152660E-01  1.56149877592E-01
  1.58114001260E-01  1.60102830563E-01  1.62116676259E-01  1.64155853015E-01
  1.66220679457E-01  1.68311478219E-01  1.70428575991E-01  1.72572303576E-01
  1.74742995934E-01  1.76940992240E-01  1.79166635936E-01  1.81420274784E-01
  1.83702260919E-01  1.86012950906E-01  1.88352705795E-01  1.90721891177E-01
  1.93120877243E-01  1.95550038839E-01  1.98009755526E-01  2.00500411641E-01
  2.03022396352E-01  2.05576103727E-01  2.08161932785E-01  2.10780287569E-01
  2.13431577202E-01  2.16116215953E-01  2.18834623303E-01  2.21587224008E-01
  2.24374448167E-01  2.27196731290E-01  2.30054514365E-01  2.32948243925E-01
  2.35878372123E-01  2.38845356796E-01  2.41849661542E-01  2.44891755790E-01
  2.47972114873E-01  2.51091220104E-01  2.54249558848E-01  2.57447624603E-01
  2.60685917073E-01  2.63964942249E-01  2.67285212483E-01  2.70647246576E-01
  2.74051569852E-01  2.77498714243E-01  2.80989218372E-01  2.84523627639E-01
  2.88102494301E-01  2.91726377565E-01  2.95395843668E-01  2.99111465973E-01
  3.02873825053E-01  3.06683508784E-01  3.10541112438E-01  3.14447238772E-01
  3.18402498127E-01  3.22407508520E-01  3.26462895742E-01  3.30569293456E-01
  3.34727343295E-01  3.38937694962E-01  3.43201006333E-01  3.47517943560E-01
  3.51889181173E-01  3.56315402186E-01  3.60797298205E-01  3.65335569537E-01
  3.69930925294E-01  3.74584083511E-01  3.79295771254E-01  3.84066724732E-01
  3.88897689417E-01  3.93789420158E-01  3.98742681297E-01  4.03758246791E-01
  4.08836900332E-01  4.13979435471E-01  4.19186655739E-01  4.24459374774E-01
  4.29798416451E-01  4.35204615004E-01  4.40678815165E-01  4.46221872286E-01
  4.51834652483E-01  4.57518032764E-01  4.63272901168E-01  4.69100156905E-01
  4.75000710497E-01  4.80975483915E-01  4.87025410732E-01  4.93151436260E-01
  4.99354517703E-01  5.05635624306E-01  5.11995737503E-01  5.18435851076E-01
  5.24956971306E-01  5.31560117131E-01  5.38246320305E-01  5.45016625562E-01
  5.51872090775E-01  5.58813787126E-01  5.65842799267E-01  5.72960225497E-01
  5.80167177929E-01  5.87464782662E-01  5.94854179962E-01  6.02336524438E-01
  6.09912985222E-01  6.17584746151E-01  6.25353005953E-01  6.33218978434E-01
  6.41183892669E-01  6.49248993191E-01  6.57415540190E-01  6.65684809704E-01
  6.74058093824E-01  6.82536700893E-01  6.91121955710E-01  6.99815199739E-01
  7.08617791316E-01  7.17531105865E-01  7.26556536109E-01  7.35695492290E-01
  7.44949402388E-01  7.54319712346E-01  7.63807886294E-01  7.73415406778E-01
  7.83143774993E-01  7.92994511016E-01  8.02969154045E-01  8.13069262638E-01
  8.23296414957E-01  8.33652209016E-01  8.44138262929E-01  8.54756215163E-01
  8.65507724795E-01  8.76394471769E-01  8.87418157163E-01  8.98580503449E-01
  9.09883254767E-01  9.21328177194E-01  9.32917059024E-01  9.44651711043E-01
  9.56533966813E-01  9.68565682961E-01  9.80748739468E-01  9.93085039961E-01
  1.00557651201E+00  1.01822510744E+00  1.03103280261E+00  1.04400159875E+00
  1.05713352227E+00  1.07043062505E+00  1.08389498480E+00  1.09752870534E+00
  1.11133391698E+00  1.12531277680E+00  1.13946746903E+00  1.15380020537E+00
  1.16831322534E+00  1.18300879663E+00  1.19788921545E+00  1.21295680690E+00
  1.22821392531E+00  1.24366295465E+00  1.25930630886E+00  1.27514643224E+00
  1.29118579985E+00  1.30742691786E+00  1.32387232399E+00  1.34052458786E+00
  1.35738631143E+00  1.37446012937E+00  1.39174870950E+00  1.40925475320E+00
  1.42698099582E+00  1.44493020713E+00  1.46310519172E+00  1.48150878947E+00
  1.50014387599E+00  1.51901336304E+00  1.53812019901E+00  1.55746736940E+00
  1.57705789723E+00  1.59689484357E+00  1.61698130797E+00  1.63732042900E+00
  1.65791538467E+00  1.67876939300E+00  1.69988571245E+00  1.72126764251E+00
  1.74291852414E+00  1.76484174034E+00  1.78704071664E+00  1.80951892170E+00
  1.83227986777E+00  1.85532711129E+00  1.87866425346E+00  1.90229494073E+00
  1.92622286546E+00  1.95045176643E+00  1.97498542945E+00  1.99982768797E+00
  2.02498242363E+00  2.05045356692E+00  2.07624509775E+00  2.10236104610E+00
  2.12880549264E+00  2.15558256936E+00  2.18269646025E+00  2.21015140191E+00
  2.23795168421E+00  2.26610165102E+00  2.29460570083E+00  2.32346828744E+00
  2.35269392070E+00  2.38228716717E+00  2.41225265086E+00  2.44259505393E+00
  2.47331911745E+00  2.50442964211E+00  2.53593148901E+00  2.56782958035E+00
  2.60012890029E+00  2.63283449566E+00  2.66595147678E+00  2.69948501824E+00
  2.73344035973E+00  2.76782280683E+00  2.80263773188E+00  2.83789057478E+00
  2.87358684385E+00  2.90973211671E+00  2.94633204114E+00  2.98339233594E+00
  3.02091879187E+00  3.05891727250E+00  3.09739371518E+00  3.13635413192E+00
  3.17580461039E+00  3.21575131478E+00  3.25620048686E+00  3.29715844689E+00
  3.33863159464E+00  3.38062641036E+00  3.42314945584E+00  3.46620737539E+00
  3.50980689689E+00  3.55395483286E+00  3.59865808150E+00  3.64392362779E+00
  3.68975854456E+00  3.73616999361E+00  3.78316522682E+00  3.83075158730E+00
  3.87893651051E+00  3.92772752543E+00  3.97713225578E+00  4.02715842113E+00
  4.07781383817E+00  4.12910642193E+00  4.18104418696E+00  4.23363524866E+00
  4.28688782447E+00  4.34081023523E+00  4.39541090642E+00  4.45069836951E+00
  4.50668126327E+00  4.56336833515E+00  4.62076844262E+00  4.67889055455E+00
  4.73774375266E+00  4.79733723286E+00  4.85768030677E+00  4.91878240311E+00
  4.98065306921E+00  5.04330197248E+00  5.10673890194E+00  5.17097376975E+00
  5.23601661273E+00  5.30187759396E+00  5.36856700435E+00  5.43609526426E+00
  5.50447292511E+00  5.57371067106E+00  5.64381932063E+00  5.71480982846E+00
  5.78669328695E+00  5.85948092804E+00  5.93318412495E+00  6.00781439395E+00
  6.08338339617E+00  6.15990293942E+00  6.23738498004E+00  6.31584162475E+00
  6.39528513256E+00  6.47572791669E+00  6.55718254648E+00  6.63966174939E+00
  6.72317841295E+00  6.80774558682E+00  6.89337648478E+00  6.98008448685E+00
  7.06788314131E+00  7.15678616690E+00  7.24680745489E+00  7.33796107128E+00
  7.43026125903E+00  7.52372244021E+00  7.61835921833E+00  7.71418638057E+00
  7.81121890014E+00  7.90947193854E+00  8.00896084804E+00  8.10970117395E+00
  8.21170865718E+00  8.31499923659E+00  8.41958905155E+00  8.52549444442E+00
  8.63273196315E+00  8.74131836381E+00  8.85127061326E+00  8.96260589174E+00
  9.07534159562E+00  9.18949534010E+00  9.30508496192E+00  9.42212852219E+00
  9.54064430922E+00  9.66065084133E+00  9.78216686979E+00  9.90521138172E+00
  1.00298036031E+01  1.01559630017E+01  1.02837092901E+01  1.04130624291E+01
  1.05440426303E+01  1.06766703595E+01  1.08109663403E+01  1.09469515565E+01
  1.10846472561E+01  1.12240749545E+01  1.13652564374E+01  1.15082137647E+01
  1.16529692739E+01  1.17995455832E+01  1.19479655955E+01  1.20982525018E+01
  1.22504297846E+01  1.24045212220E+01  1.25605508911E+01  1.27185431718E+01
  1.28785227507E+01  1.30405146251E+01  1.32045441064E+01  1.33706368245E+01
  1.35388187319E+01  1.37091161072E+01  1.38815555598E+01  1.40561640338E+01
  1.42329688119E+01  1.44119975204E+01  1.45932781328E+01  1.47768389746E+01
  1.49627087276E+01  1.51509164342E+01  1.53414915024E+01  1.55344637098E+01
  1.57298632088E+01  1.59277205309E+01  1.61280665918E+01  1.63309326958E+01
  1.65363505414E+01  1.67443522253E+01  1.69549702483E+01  1.71682375200E+01
  1.73841873637E+01  1.76028535220E+01  1.78242701620E+01  1.80484718805E+01
  1.82754937094E+01  1.85053711214E+01  1.87381400353E+01  1.89738368217E+01
  1.92124983087E+01  1.94541617877E+01  1.96988650190E+01  1.99466462380E+01
  2.01975441611E+01  2.04515979916E+01  2.07088474258E+01  2.09693326597E+01
  2.12330943944E+01  2.15001738433E+01  2.17706127381E+01  2.20444533354E+01
  2.23217384234E+01  2.26025113285E+01  2.28868159219E+01  2.31746966269E+01
  2.34661984254E+01  2.37613668651E+01  2.40602480668E+01  2.43628887311E+01
  2.46693361464E+01  2.49796381957E+01  2.52938433642E+01  2.56120007473E+01
  2.59341600575E+01  2.62603716331E+01  2.65906864451E+01  2.69251561060E+01
  2.72638328773E+01  2.76067696779E+01  2.79540200925E+01  2.83056383796E+01
  2.86616794803E+01  2.90221990267E+01  2.93872533508E+01  2.97568994930E+01
  3.01311952112E+01  3.05101989901E+01  3.08939700496E+01  3.12825683547E+01
  3.16760546248E+01  3.20744903429E+01  3.24779377654E+01  3.28864599317E+01
  3.33001206743E+01  3.37189846285E+01  3.41431172427E+01  3.45725847884E+01
  3.50074543708E+01  3.54477939391E+01  3.58936722974E+01  3.63451591150E+01
  3.68023249377E+01  3.72652411985E+01  3.77339802291E+01  3.82086152708E+01
  3.86892204864E+01  3.91758709715E+01  3.96686427660E+01  4.01676128667E+01
  4.06728592387E+01  4.11844608276E+01  4.17024975724E+01  4.22270504172E+01
  4.27582013246E+01  4.32960332879E+01  4.38406303445E+01  4.43920775888E+01
  4.49504611856E+01  4.55158683833E+01  4.60883875281E+01  4.66681080772E+01
  4.72551206132E+01  4.78495168579E+01  4.84513896869E+01  4.90608331442E+01
  4.96779424564E+01  5.03028140482E+01  5.09355455571E+01  5.15762358486E+01
  5.22249850318E+01  5.28818944753E+01  5.35470668223E+01  5.42206060075E+01
  5.49026172726E+01  5.55932071835E+01  5.62924836460E+01  5.70005559237E+01
  5.77175346541E+01  5.84435318668E+01  5.91786610003E+01  5.99230369199E+01
  6.06767759360E+01  6.14399958217E+01  6.22128158318E+01  6.29953567210E+01
  6.37877407628E+01  6.45900917688E+01  6.54025351082E+01  6.62251977267E+01
  6.70582081670E+01  6.79016965889E+01  6.87557947889E+01  6.96206362218E+01
  7.04963560208E+01  7.13830910188E+01  7.22809797700E+01  7.31901625713E+01
  7.41107814845E+01  7.50429803580E+01  7.59869048499E+01  7.69427024503E+01
  7.79105225044E+01  7.88905162363E+01  7.98828367718E+01  8.08876391630E+01
  8.19050804125E+01  8.29353194974E+01  8.39785173947E+01  8.50348371062E+01
  8.61044436840E+01  8.71875042563E+01  8.82841880535E+01  8.93946664348E+01
  9.05191129145E+01  9.16577031898E+01  9.28106151677E+01  9.39780289931E+01
  9.51601270766E+01  9.63570941237E+01  9.75691171627E+01  9.87963855748E+01
  1.00039091123E+02
  </PP_R>
  <PP_RAB>
  5.99922345760E-07  6.07468439914E-07  6.15109452248E-07  6.22846576685E-07
  6.30681022167E-07  6.38614012842E-07  6.46646788256E-07  6.54780603546E-07
  6.63016729637E-07  6.71356453442E-07  6.79801078058E-07  6.88351922975E-07
  6.97010324281E-07  7.05777634869E-07  7.14655224647E-07  7.23644480759E-07
  7.32746807793E-07  7.41963628006E-07  7.51296381546E-07  7.60746526674E-07
  7.70315539994E-07  7.80004916685E-07  7.89816170731E-07  7.99750835161E-07
  8.09810462285E-07  8.19996623942E-07  8.30310911740E-07  8.40754937307E-07
  8.51330332543E-07  8.62038749876E-07  8.72881862518E-07  8.83861364726E-07
  8.94978972071E-07  9.06236421701E-07  9.17635472616E-07  9.29177905940E-07
  9.40865525203E-07  9.52700156618E-07  9.64683649370E-07  9.76817875906E-07
  9.89104732222E-07  1.00154613816E-06  1.01414403773E-06  1.02690039936E-06
  1.03981721627E-06  1.05289650674E-06  1.06614031443E-06  1.07955070871E-06
  1.09312978498E-06  1.10687966501E-06  1.12080249724E-06  1.13490045714E-06
  1.14917574754E-06  1.16363059899E-06  1.17826727009E-06  1.19308804785E-06
  1.20809524805E-06  1.22329121558E-06  1.23867832485E-06  1.25425898014E-06
  1.27003561594E-06  1.28601069739E-06  1.30218672063E-06  1.31856621319E-06
  1.33515173441E-06  1.35194587580E-06  1.36895126148E-06  1.38617054858E-06
  1.40360642766E-06  1.42126162309E-06  1.43913889354E-06  1.45724103237E-06
  1.47557086808E-06  1.49413126474E-06  1.51292512245E-06  1.53195537779E-06
  1.55122500427E-06  1.57073701281E-06  1.59049445221E-06  1.61050040961E-06
  1.63075801096E-06  1.65127042158E-06  1.67204084656E-06  1.69307253132E-06
  1.71436876211E-06  1.73593286651E-06  1.75776821395E-06  1.77987821625E-06
  1.80226632814E-06  1.82493604781E-06  1.84789091745E-06  1.87113452381E-06
  1.89467049874E-06  1.91850251980E-06  1.94263431077E-06  1.96706964231E-06
  1.99181233248E-06  2.01686624739E-06  2.04223530174E-06  2.06792345952E-06
  2.09393473455E-06  2.12027319113E-06  2.14694294472E-06  2.17394816251E-06
  2.20129306413E-06  2.22898192226E-06  2.25701906335E-06  2.28540886827E-06
  2.31415577297E-06  2.34326426922E-06  2.37273890527E-06  2.40258428661E-06
  2.43280507663E-06  2.46340599740E-06  2.49439183036E-06  2.52576741712E-06
  2.55753766018E-06  2.58970752370E-06  2.62228203429E-06  2.65526628179E-06
  2.68866542004E-06  2.72248466774E-06  2.75672930920E-06  2.79140469523E-06
  2.82651624392E-06  2.86206944152E-06  2.89806984330E-06  2.93452307438E-06
  2.97143483067E-06  3.00881087969E-06  3.04665706154E-06  3.08497928974E-06
  3.12378355224E-06  3.16307591228E-06  3.20286250936E-06  3.24314956023E-06
  3.28394335981E-06  3.32525028222E-06  3.36707678176E-06  3.40942939389E-06
  3.45231473630E-06  3.49573950992E-06  3.53971049994E-06  3.58423457693E-06
  3.62931869787E-06  3.67496990724E-06  3.72119533813E-06  3.76800221336E-06
  3.81539784661E-06  3.86338964353E-06  3.91198510294E-06  3.96119181799E-06
  4.01101747731E-06  4.06146986628E-06  4.11255686818E-06  4.16428646545E-06
  4.21666674096E-06  4.26970587922E-06  4.32341216772E-06  4.37779399816E-06
  4.43285986782E-06  4.48861838085E-06  4.54507824964E-06  4.60224829615E-06
  4.66013745332E-06  4.71875476645E-06  4.77810939462E-06  4.83821061209E-06
  4.89906780982E-06  4.96069049686E-06  5.02308830188E-06  5.08627097467E-06
  5.15024838765E-06  5.21503053741E-06  5.28062754631E-06  5.34704966401E-06
  5.41430726909E-06  5.48241087070E-06  5.55137111017E-06  5.62119876266E-06
  5.69190473890E-06  5.76350008683E-06  5.83599599337E-06  5.90940378617E-06
  5.98373493533E-06  6.05900105524E-06  6.13521390640E-06  6.21238539721E-06
  6.29052758588E-06  6.36965268229E-06  6.44977304988E-06  6.53090120764E-06
  6.61304983200E-06  6.69623175884E-06  6.78045998553E-06  6.86574767288E-06
  6.95210814727E-06  7.03955490271E-06  7.12810160292E-06  7.21776208351E-06
  7.30855035411E-06  7.40048060057E-06  7.49356718718E-06  7.58782465891E-06
  7.68326774368E-06  7.77991135467E-06  7.87777059263E-06  7.97686074828E-06
  8.07719730465E-06  8.17879593953E-06  8.28167252792E-06  8.38584314448E-06
  8.49132406611E-06  8.59813177439E-06  8.70628295825E-06  8.81579451654E-06
  8.92668356066E-06  9.03896741724E-06  9.15266363088E-06  9.26778996683E-06
  9.38436441382E-06  9.50240518683E-06  9.62193073000E-06  9.74295971941E-06
  9.86551106610E-06  9.98960391897E-06  1.01152576678E-05  1.02424919462E-05
  1.03713266348E-05  1.05017818643E-05  1.06338780185E-05  1.07676357379E-05
  1.09030759222E-05  1.10402197343E-05  1.11790886033E-05  1.13197042275E-05
  1.14620885786E-05  1.16062639044E-05  1.17522527324E-05  1.19000778739E-05
  1.20497624268E-05  1.22013297796E-05  1.23548036149E-05  1.25102079135E-05
  1.26675669575E-05  1.28269053346E-05  1.29882479418E-05  1.31516199891E-05
  1.33170470038E-05  1.34845548342E-05  1.36541696537E-05  1.38259179651E-05
  1.39998266042E-05  1.41759227447E-05  1.43542339020E-05  1.45347879375E-05
  1.47176130633E-05  1.49027378460E-05  1.50901912118E-05  1.52800024507E-05
  1.54722012211E-05  1.56668175543E-05  1.58638818597E-05  1.60634249290E-05
  1.62654779410E-05  1.64700724671E-05  1.66772404755E-05  1.68870143366E-05
  1.70994268281E-05  1.73145111399E-05  1.75323008792E-05  1.77528300762E-05
  1.79761331890E-05  1.82022451092E-05  1.84312011673E-05  1.86630371380E-05
  1.88977892462E-05  1.91354941725E-05  1.93761890586E-05  1.96199115137E-05
  1.98666996199E-05  2.01165919384E-05  2.03696275152E-05  2.06258458878E-05
  2.08852870908E-05  2.11479916624E-05  2.14140006507E-05  2.16833556202E-05
  2.19560986581E-05  2.22322723811E-05  2.25119199419E-05  2.27950850360E-05
  2.30818119085E-05  2.33721453610E-05  2.36661307588E-05  2.39638140377E-05
  2.42652417113E-05  2.45704608783E-05  2.48795192298E-05  2.51924650568E-05
  2.55093472577E-05  2.58302153460E-05  2.61551194580E-05  2.64841103607E-05