<PP_INFO>
Generated using unknown code
Author: Axel Kohlmeyer    Generation date: before Dec. 2005
Info: All-electron Li, requires a high cutoff
    0        The Pseudo was generated with a Non-Relativistic Calculation
nl pn  l   occ               Rcut            Rcut US             E pseu
1S  0  0  2.00      0.00000000000      0.00000000000      0.00000000000
2P  0  1  1.00      0.00000000000      0.00000000000      0.00000000000
2S  0  0  0.00      0.00000000000      0.00000000000      0.00000000000
</PP_INFO>


<PP_HEADER>
   0                   Version Number
  Li                   Element
   NC                  Norm - Conserving pseudopotential
    F                  Nonlinear Core Correction
SLA  PW   GGX  GGC     PW91 Exchange-Correlation functional
    3.00000000000      Z valence
    0.00000000000      Total energy
  0.0000000  0.0000000 Suggested cutoff for wfc and rho
    0                  Max angular momentum component
  881                  Number of points in mesh
    3    1             Number of Wavefunctions, Number of Projectors
 Wavefunctions         nl  l   occ
                       1S  0  2.00
                       2P  1  1.00
                       2S  0  0.00
</PP_HEADER>


<PP_MESH>
  <PP_R>
  1.11820875968E-04  1.13510832091E-04  1.15226328631E-04  1.16967751581E-04
  1.18735492769E-04  1.20529949943E-04  1.22351526865E-04  1.24200633396E-04
  1.26077685594E-04  1.27983105803E-04  1.29917322751E-04  1.31880771644E-04
  1.33873894268E-04  1.35897139082E-04  1.37950961326E-04  1.40035823119E-04
  1.42152193562E-04  1.44300548848E-04  1.46481372367E-04  1.48695154813E-04
  1.50942394296E-04  1.53223596454E-04  1.55539274568E-04  1.57889949675E-04
  1.60276150686E-04  1.62698414508E-04  1.65157286159E-04  1.67653318897E-04
  1.70187074338E-04  1.72759122589E-04  1.75370042372E-04  1.78020421154E-04
  1.80710855282E-04  1.83441950115E-04  1.86214320160E-04  1.89028589213E-04
  1.91885390496E-04  1.94785366801E-04  1.97729170636E-04  2.00717464368E-04
  2.03750920377E-04  2.06830221202E-04  2.09956059699E-04  2.13129139196E-04
  2.16350173648E-04  2.19619887802E-04  2.22939017357E-04  2.26308309132E-04
  2.29728521231E-04  2.33200423216E-04  2.36724796281E-04  2.40302433423E-04
  2.43934139627E-04  2.47620732041E-04  2.51363040165E-04  2.55161906033E-04
  2.59018184406E-04  2.62932742963E-04  2.66906462497E-04  2.70940237112E-04
  2.75034974422E-04  2.79191595762E-04  2.83411036389E-04  2.87694245695E-04
  2.92042187419E-04  2.96455839868E-04  3.00936196132E-04  3.05484264309E-04
  3.10101067735E-04  3.14787645209E-04  3.19545051231E-04  3.24374356238E-04
  3.29276646844E-04  3.34253026084E-04  3.39304613665E-04  3.44432546216E-04
  3.49637977543E-04  3.54922078889E-04  3.60286039201E-04  3.65731065392E-04
  3.71258382615E-04  3.76869234541E-04  3.82564883634E-04  3.88346611440E-04
  3.94215718872E-04  4.00173526504E-04  4.06221374867E-04  4.12360624754E-04
  4.18592657521E-04  4.24918875402E-04  4.31340701822E-04  4.37859581720E-04
  4.44476981871E-04  4.51194391218E-04  4.58013321207E-04  4.64935306125E-04
  4.71961903449E-04  4.79094694192E-04  4.86335283262E-04  4.93685299823E-04
  5.01146397659E-04  5.08720255549E-04  5.16408577642E-04  5.24213093844E-04
  5.32135560204E-04  5.40177759310E-04  5.48341500690E-04  5.56628621222E-04
  5.65040985541E-04  5.73580486466E-04  5.82249045420E-04  5.91048612866E-04
  5.99981168744E-04  6.09048722915E-04  6.18253315619E-04  6.27597017926E-04
  6.37081932211E-04  6.46710192618E-04  6.56483965547E-04  6.66405450137E-04
  6.76476878765E-04  6.86700517545E-04  6.97078666838E-04  7.07613661773E-04
  7.18307872766E-04  7.29163706061E-04  7.40183604266E-04  7.51370046905E-04
  7.62725550974E-04  7.74252671510E-04  7.85954002163E-04  7.97832175783E-04
  8.09889865008E-04  8.22129782870E-04  8.34554683401E-04  8.47167362256E-04
  8.59970657342E-04  8.72967449454E-04  8.86160662925E-04  8.99553266284E-04
  9.13148272923E-04  9.26948741775E-04  9.40957778005E-04  9.55178533705E-04
  9.69614208604E-04  9.84268050791E-04  9.99143357442E-04  1.01424347556E-03
  1.02957180275E-03  1.04513178793E-03  1.06092693217E-03  1.07696078945E-03
  1.09323696745E-03  1.10975912838E-03  1.12653098979E-03  1.14355632543E-03
  1.16083896607E-03  1.17838280037E-03  1.19619177578E-03  1.21426989938E-03
  1.23262123883E-03  1.25124992326E-03  1.27016014420E-03  1.28935615653E-03
  1.30884227944E-03  1.32862289738E-03  1.34870246107E-03  1.36908548852E-03
  1.38977656597E-03  1.41078034901E-03  1.43210156358E-03  1.45374500705E-03
  1.47571554928E-03  1.49801813373E-03  1.52065777858E-03  1.54363957784E-03
  1.56696870253E-03  1.59065040178E-03  1.61469000408E-03  1.63909291845E-03
  1.66386463564E-03  1.68901072939E-03  1.71453685768E-03  1.74044876399E-03
  1.76675227862E-03  1.79345331997E-03  1.82055789588E-03  1.84807210500E-03
  1.87600213813E-03  1.90435427967E-03  1.93313490895E-03  1.96235050174E-03
  1.99200763167E-03  2.02211297172E-03  2.05267329572E-03  2.08369547988E-03
  2.11518650430E-03  2.14715345462E-03  2.17960352352E-03  2.21254401240E-03
  2.24598233303E-03  2.27992600915E-03  2.31438267825E-03  2.34936009321E-03
  2.38486612410E-03  2.42090875994E-03  2.45749611046E-03  2.49463640797E-03
  2.53233800919E-03  2.57060939715E-03  2.60945918308E-03  2.64889610832E-03
  2.68892904637E-03  2.72956700479E-03  2.77081912731E-03  2.81269469582E-03
  2.85520313250E-03  2.89835400193E-03  2.94215701324E-03  2.98662202229E-03
  3.03175903390E-03  3.07757820408E-03  3.12408984234E-03  3.17130441399E-03
  3.21923254251E-03  3.26788501194E-03  3.31727276928E-03  3.36740692699E-03
  3.41829876547E-03  3.46995973559E-03  3.52240146128E-03  3.57563574217E-03
  3.62967455618E-03  3.68453006229E-03  3.74021460320E-03  3.79674070817E-03
  3.85412109582E-03  3.91236867698E-03  3.97149655760E-03  4.03151804169E-03
  4.09244663436E-03  4.15429604478E-03  4.21708018934E-03  4.28081319473E-03
  4.34550940115E-03  4.41118336551E-03  4.47784986475E-03  4.54552389909E-03
  4.61422069549E-03  4.68395571102E-03  4.75474463633E-03  4.82660339925E-03
  4.89954816830E-03  4.97359535636E-03  5.04876162435E-03  5.12506388501E-03
  5.20251930666E-03  5.28114531711E-03  5.36095960753E-03  5.44198013648E-03
  5.52422513392E-03  5.60771310532E-03  5.69246283583E-03  5.77849339449E-03
  5.86582413854E-03  5.95447471777E-03  6.04446507893E-03  6.13581547024E-03
  6.22854644591E-03  6.32267887081E-03  6.41823392513E-03  6.51523310916E-03
  6.61369824812E-03  6.71365149710E-03  6.81511534598E-03  6.91811262457E-03
  7.02266650768E-03  7.12880052039E-03  7.23653854328E-03  7.34590481788E-03
  7.45692395206E-03  7.56962092558E-03  7.68402109574E-03  7.80015020307E-03
  7.91803437710E-03  8.03770014227E-03  8.15917442388E-03  8.28248455416E-03
  8.40765827841E-03  8.53472376124E-03  8.66370959292E-03  8.79464479581E-03
  8.92755883088E-03  9.06248160435E-03  9.19944347442E-03  9.33847525807E-03
  9.47960823806E-03  9.62287416990E-03  9.76830528901E-03  9.91593431803E-03
  1.00657944741E-02  1.02179194764E-02  1.03723435537E-02  1.05291014520E-02
  1.06882284426E-02  1.08497603297E-02  1.10137334586E-02  1.11801847240E-02
  1.13491515782E-02  1.15206720393E-02  1.16947847003E-02  1.18715287371E-02
  1.20509439180E-02  1.22330706121E-02  1.24179497987E-02  1.26056230764E-02
  1.27961326725E-02  1.29895214524E-02  1.31858329295E-02  1.33851112745E-02
  1.35874013261E-02  1.37927486003E-02  1.40011993011E-02  1.42128003309E-02
  1.44275993007E-02  1.46456445411E-02  1.48669851134E-02  1.50916708201E-02
  1.53197522163E-02  1.55512806215E-02  1.57863081304E-02  1.60248876252E-02
  1.62670727873E-02  1.65129181095E-02  1.67624789079E-02  1.70158113347E-02
  1.72729723909E-02  1.75340199388E-02  1.77990127151E-02  1.80680103443E-02
  1.83410733521E-02  1.86182631788E-02  1.88996421933E-02  1.91852737070E-02
  1.94752219882E-02  1.97695522765E-02  2.00683307975E-02  2.03716247775E-02
  2.06795024591E-02  2.09920331160E-02  2.13092870689E-02  2.16313357013E-02
  2.19582514755E-02  2.22901079489E-02  2.26269797906E-02  2.29689427982E-02
  2.33160739149E-02  2.36684512465E-02  2.40261540796E-02  2.43892628987E-02
  2.47578594048E-02  2.51320265337E-02  2.55118484746E-02  2.58974106891E-02
  2.62887999302E-02  2.66861042622E-02  2.70894130803E-02  2.74988171306E-02
  2.79144085307E-02  2.83362807906E-02  2.87645288331E-02  2.91992490160E-02
  2.96405391531E-02  3.00884985366E-02  3.05432279592E-02  3.10048297369E-02
  3.14734077321E-02  3.19490673768E-02  3.24319156965E-02  3.29220613340E-02
  3.34196145743E-02  3.39246873688E-02  3.44373933610E-02  3.49578479121E-02
  3.54861681264E-02  3.60224728783E-02  3.65668828385E-02  3.71195205016E-02
  3.76805102135E-02  3.82499781991E-02  3.88280525912E-02  3.94148634589E-02
  4.00105428372E-02  4.06152247564E-02  4.12290452725E-02  4.18521424977E-02
  4.24846566316E-02  4.31267299925E-02  4.37785070495E-02  4.44401344553E-02
  4.51117610789E-02  4.57935380390E-02  4.64856187384E-02  4.71881588980E-02
  4.79013165926E-02  4.86252522854E-02  4.93601288652E-02  5.01061116821E-02
  5.08633685856E-02  5.16320699616E-02  5.24123887712E-02  5.32045005894E-02
  5.40085836446E-02  5.48248188591E-02  5.56533898890E-02  5.64944831665E-02
  5.73482879410E-02  5.82149963223E-02  5.90948033233E-02  5.99879069044E-02
  6.08945080176E-02  6.18148106520E-02  6.27490218796E-02  6.36973519018E-02
  6.46600140970E-02  6.56372250681E-02  6.66292046917E-02  6.76361761675E-02
  6.86583660683E-02  6.96960043911E-02  7.07493246089E-02  7.18185637232E-02
  7.29039623174E-02  7.40057646106E-02  7.51242185131E-02  7.62595756817E-02
  7.74120915766E-02  7.85820255186E-02  7.97696407479E-02  8.09752044829E-02
  8.21989879805E-02  8.34412665972E-02  8.47023198509E-02  8.59824314839E-02
  8.72818895268E-02  8.86009863630E-02  8.99400187949E-02  9.12992881105E-02
  9.26791001511E-02  9.40797653802E-02  9.55015989534E-02  9.69449207893E-02
  9.84100556413E-02  9.98973331711E-02  1.01407088022E-01  1.02939659896E-01
  1.04495393628E-01  1.06074639263E-01  1.07677752141E-01  1.09305092967E-01
  1.10957027899E-01  1.12633928632E-01  1.14336172473E-01  1.16064142435E-01
  1.17818227320E-01  1.19598821802E-01  1.21406326524E-01  1.23241148181E-01
  1.25103699617E-01  1.26994399913E-01  1.28913674485E-01  1.30861955177E-01
  1.32839680362E-01  1.34847295034E-01  1.36885250917E-01  1.38954006560E-01
  1.41054027439E-01  1.43185786070E-01  1.45349762107E-01  1.47546442454E-01
  1.49776321372E-01  1.52039900595E-01  1.54337689437E-01  1.56670204910E-01
  1.59037971840E-01  1.61441522985E-01  1.63881399154E-01  1.66358149328E-01
  1.68872330789E-01  1.71424509236E-01  1.74015258920E-01  1.76645162773E-01
  1.79314812532E-01  1.82024808880E-01  1.84775761578E-01  1.87568289602E-01
  1.90403021283E-01  1.93280594447E-01  1.96201656559E-01  1.99166864873E-01
  2.02176886571E-01  2.05232398921E-01  2.08334089428E-01  2.11482655983E-01
  2.14678807028E-01  2.17923261710E-01  2.21216750045E-01  2.24560013083E-01
  2.27953803071E-01  2.31398883626E-01  2.34896029906E-01  2.38446028784E-01
  2.42049679025E-01  2.45707791464E-01  2.49421189193E-01  2.53190707742E-01
  2.57017195268E-01  2.60901512747E-01  2.64844534168E-01  2.68847146726E-01
  2.72910251026E-01  2.77034761284E-01  2.81221605532E-01  2.85471725828E-01
  2.89786078466E-01  2.94165634195E-01  2.98611378432E-01  3.03124311489E-01
  3.07705448796E-01  3.12355821126E-01  3.17076474834E-01  3.21868472086E-01
  3.26732891102E-01  3.31670826398E-01  3.36683389028E-01  3.41771706841E-01
  3.46936924731E-01  3.52180204892E-01  3.57502727085E-01  3.62905688899E-01
  3.68390306025E-01  3.73957812524E-01  3.79609461108E-01  3.85346523423E-01
  3.91170290331E-01  3.97082072204E-01  4.03083199219E-01  4.09175021654E-01
  4.15358910196E-01  4.21636256244E-01  4.28008472229E-01  4.34476991926E-01
  4.41043270779E-01  4.47708786229E-01  4.54475038044E-01  4.61343548660E-01
  4.68315863521E-01  4.75393551427E-01  4.82578204888E-01  4.89871440480E-01
  4.97274899214E-01  5.04790246897E-01  5.12419174516E-01  5.20163398611E-01
  5.28024661665E-01  5.36004732495E-01  5.44105406652E-01  5.52328506820E-01
  5.60675883233E-01  5.69149414085E-01  5.77751005956E-01  5.86482594241E-01
  5.95346143583E-01  6.04343648320E-01  6.13477132927E-01  6.22748652477E-01
  6.32160293102E-01  6.41714172459E-01  6.51412440212E-01  6.61257278512E-01
  6.71250902490E-01  6.81395560753E-01  6.91693535891E-01  7.02147144994E-01
  7.12758740166E-01  7.23530709061E-01  7.34465475419E-01  7.45565499607E-01
  7.56833279177E-01  7.68271349429E-01  7.79882283975E-01  7.91668695326E-01
  8.03633235472E-01  8.15778596487E-01  8.28107511128E-01  8.40622753453E-01
  8.53327139443E-01  8.66223527640E-01  8.79314819785E-01  8.92603961474E-01
  9.06093942820E-01  9.19787799125E-01  9.33688611566E-01  9.47799507884E-01
  9.62123663089E-01  9.76664300178E-01  9.91424690854E-01  1.00640815627E+00
  1.02161806776E+00  1.03705784764E+00  1.05273096990E+00  1.06864096107E+00
  1.08479140096E+00  1.10118592350E+00  1.11782821752E+00  1.13472202760E+00
  1.15187115492E+00  1.16927945811E+00  1.18695085412E+00  1.20488931907E+00
  1.22309888921E+00  1.24158366175E+00  1.26034779586E+00  1.27939551353E+00
  1.29873110060E+00  1.31835890764E+00  1.33828335100E+00  1.35850891376E+00
  1.37904014675E+00  1.39988166960E+00  1.42103817172E+00  1.44251441343E+00
  1.46431522697E+00  1.48644551762E+00  1.50891026477E+00  1.53171452310E+00
  1.55486342366E+00  1.57836217505E+00  1.60221606459E+00  1.62643045950E+00
  1.65101080813E+00  1.67596264116E+00  1.70129157285E+00  1.72700330232E+00
  1.75310361482E+00  1.77959838302E+00  1.80649356838E+00  1.83379522240E+00
  1.86150948809E+00  1.88964260127E+00  1.91820089200E+00  1.94719078603E+00
  1.97661880620E+00  2.00649157394E+00  2.03681581074E+00  2.06759833970E+00
  2.09884608701E+00  2.13056608354E+00  2.16276546643E+00  2.19545148067E+00
  2.22863148076E+00  2.26231293233E+00  2.29650341386E+00  2.33121061834E+00
  2.36644235505E+00  2.40220655127E+00  2.43851125410E+00  2.47536463225E+00
  2.51277497789E+00  2.55075070849E+00  2.58930036877E+00  2.62843263255E+00
  2.66815630477E+00  2.70848032340E+00  2.74941376154E+00  2.79096582938E+00
  2.83314587630E+00  2.87596339299E+00  2.91942801358E+00  2.96354951779E+00
  3.00833783314E+00  3.05380303720E+00  3.09995535983E+00  3.14680518549E+00
  3.19436305559E+00  3.24263967085E+00  3.29164589372E+00  3.34139275081E+00
  3.39189143536E+00  3.44315330979E+00  3.49518990824E+00  3.54801293917E+00
  3.60163428798E+00  3.65606601969E+00  3.71132038169E+00  3.76740980643E+00
  3.82434691426E+00  3.88214451629E+00  3.94081561722E+00  4.00037341828E+00
  4.06083132023E+00  4.12220292637E+00  4.18450204556E+00  4.24774269536E+00
  4.31193910518E+00  4.37710571950E+00  4.44325720107E+00  4.51040843425E+00
  4.57857452836E+00  4.64777082105E+00  4.71801288179E+00  4.78931651533E+00
  4.86169776529E+00  4.93517291776E+00  5.00975850496E+00  5.08547130895E+00
  5.16232836545E+00  5.24034696760E+00  5.31954466993E+00  5.39993929225E+00
  5.48154892370E+00  5.56439192678E+00  5.64848694151E+00  5.73385288964E+00
  5.82050897886E+00  5.90847470715E+00  5.99776986718E+00  6.08841455074E+00
  6.18042915325E+00  6.27383437839E+00  6.36865124274E+00  6.46490108049E+00
  6.56260554825E+00  6.66178662995E+00  6.76246664175E+00  6.86466823707E+00
  6.96841441170E+00  7.07372850897E+00  7.18063422500E+00  7.28915561403E+00
  7.39931709381E+00  7.51114345116E+00  7.62465984748E+00  7.73989182443E+00
  7.85686530969E+00  7.97560662279E+00  8.09614248103E+00  8.21850000549E+00
  8.34270672711E+00  8.46879059295E+00  8.59677997240E+00  8.72670366361E+00
  8.85859089996E+00  8.99247135663E+00  9.12837515730E+00  9.26633288089E+00
  9.40637556847E+00  9.54853473024E+00  9.69284235260E+00  9.83933090538E+00
  9.98803334913E+00  1.01389831425E+01  1.02922142499E+01  1.04477611489E+01
  1.06056588382E+01  1.07659428455E+01  1.09286492354E+01  1.10938146175E+01
  1.12614761546E+01  1.14316715714E+01  1.16044391625E+01  1.17798178014E+01
  1.19578469490E+01  1.21385666626E+01  1.23220176049E+01  1.25082410532E+01
  1.26972789085E+01  1.28891737051E+01  1.30839686201E+01  1.32817074833E+01
  1.34824347867E+01  1.36861956948E+01  1.38930360547E+01  1.41030024063E+01
  1.43161419929E+01  1.45325027719E+01  1.47521334253E+01  1.49750833710E+01
  1.52014027736E+01  1.54311425560E+01  1.56643544105E+01  1.59010908109E+01
  1.61414050238E+01  1.63853511209E+01  1.66329839911E+01  1.68843593529E+01
  1.71395337668E+01  1.73985646481E+01  1.76615102799E+01  1.79284298260E+01
  1.81993833444E+01  1.84744318008E+01  1.87536370824E+01  1.90370620114E+01
  1.93247703597E+01  1.96168268628E+01  1.99132972347E+01  2.02142481825E+01
  2.05197474215E+01  2.08298636902E+01  2.11446667660E+01  2.14642274812E+01
  2.17886177380E+01  2.21179105258E+01  2.24521799367E+01  2.27915011829E+01
  2.31359506129E+01  2.34856057295E+01  2.38405452064E+01  2.42008489066E+01
  2.45665978999E+01  2.49378744813E+01  2.53147621897E+01  2.56973458264E+01
  2.60857114744E+01  2.64799465174E+01  2.68801396602E+01  2.72863809477E+01
  2.76987617861E+01  2.81173749628E+01  2.85423146674E+01  2.89736765133E+01
  2.94115575586E+01  2.98560563284E+01  3.03072728368E+01  3.07653086096E+01
  3.12302667065E+01  3.17022517452E+01  3.21813699243E+01  3.26677290474E+01
  3.31614385473E+01  3.36626095108E+01  3.41713547035E+01  3.46877885951E+01
  3.52120273856E+01  3.57441890307E+01  3.62843932691E+01  3.68327616492E+01
  3.73894175559E+01  3.79544862394E+01  3.85280948424E+01  3.91103724293E+01
  3.97014500149E+01  4.03014605944E+01  4.09105391724E+01  4.15288227944E+01
  4.21564505767E+01  4.27935637382E+01  4.34403056322E+01  4.40968217781E+01
  4.47632598950E+01  4.54397699342E+01  4.61265041133E+01  4.68236169505E+01
  4.75312652990E+01  4.82496083827E+01  4.89788078319E+01  4.97190277195E+01
  5.04704345980E+01  5.12331975373E+01  5.20074881621E+01  5.27934806912E+01
  5.35913519762E+01  5.44012815415E+01  5.52234516246E+01  5.60580472173E+01
  5.69052561071E+01  5.77652689196E+01  5.86382791614E+01  5.95244832633E+01
  6.04240806251E+01
  </PP_R>
  <PP_RAB>
  1.67731313951E-06  1.70266248137E-06  1.72839492947E-06  1.75451627372E-06
  1.78103239154E-06  1.80794924915E-06  1.83527290298E-06  1.86300950095E-06
  1.89116528391E-06  1.91974658705E-06  1.94875984126E-06  1.97821157467E-06
  2.00810841402E-06  2.03845708623E-06  2.06926441989E-06  2.10053734678E-06
  2.13228290343E-06  2.16450823273E-06  2.19722058551E-06  2.23042732219E-06
  2.26413591443E-06  2.29835394681E-06  2.33308911852E-06  2.36834924512E-06
  2.40414226029E-06  2.44047621762E-06  2.47735929239E-06  2.51479978345E-06
  2.55280611507E-06  2.59138683884E-06  2.63055063558E-06  2.67030631731E-06
  2.71066282923E-06  2.75162925172E-06  2.79321480240E-06  2.83542883819E-06
  2.87828085744E-06  2.92178050202E-06  2.96593755954E-06  3.01076196552E-06
  3.05626380565E-06  3.10245331803E-06  3.14934089549E-06  3.19693708794E-06
  3.24525260472E-06  3.29429831703E-06  3.34408526036E-06  3.39462463698E-06
  3.44592781846E-06  3.49800634825E-06  3.55087194421E-06  3.60453650135E-06
  3.65901209440E-06  3.71431098061E-06  3.77044560247E-06  3.82742859049E-06
  3.88527276609E-06  3.94399114445E-06  4.00359693746E-06  4.06410355667E-06
  4.12552461633E-06  4.18787393643E-06  4.25116554583E-06  4.31541368542E-06
  4.38063281129E-06  4.44683759803E-06  4.51404294198E-06  4.58226396464E-06
  4.65151601602E-06  4.72181467814E-06  4.79317576847E-06  4.86561534357E-06
  4.93914970266E-06  5.01379539126E-06  5.08956920498E-06  5.16648819324E-06
  5.24456966314E-06  5.32383118334E-06  5.40429058802E-06  5.48596598088E-06
  5.56887573922E-06  5.65303851811E-06  5.73847325451E-06  5.82519917160E-06
  5.91323578308E-06  6.00260289756E-06  6.09332062301E-06  6.18540937131E-06
  6.27888986281E-06  6.37378313102E-06  6.47011052733E-06  6.56789372580E-06
  6.66715472807E-06  6.76791586828E-06  6.87019981811E-06  6.97402959188E-06
  7.07942855173E-06  7.18642041288E-06  7.29502924893E-06  7.40527949735E-06
  7.51719596489E-06  7.63080383323E-06  7.74612866464E-06  7.86319640767E-06
  7.98203340306E-06  8.10266638965E-06  8.22512251035E-06  8.34942931832E-06
  8.47561478312E-06  8.60370729699E-06  8.73373568131E-06  8.86572919299E-06
  8.99971753115E-06  9.13573084372E-06  9.27379973428E-06  9.41395526889E-06
  9.55622898316E-06  9.70065288927E-06  9.84725948320E-06  9.99608175206E-06
  1.01471531815E-05  1.03005077632E-05  1.04561800026E-05  1.06142049266E-05
  1.07746180915E-05  1.09374555909E-05  1.11027540640E-05  1.12705507036E-05
  1.14408832646E-05  1.16137900726E-05  1.17893100325E-05  1.19674826367E-05
  1.21483479751E-05  1.23319467430E-05  1.25183202510E-05  1.27075104338E-05
  1.28995598601E-05  1.30945117418E-05  1.32924099439E-05  1.34932989943E-05
  1.36972240938E-05  1.39042311266E-05  1.41143666701E-05  1.43276780056E-05
  1.45442131291E-05  1.47640207619E-05  1.49871503616E-05  1.52136521334E-05
  1.54435770412E-05  1.56769768189E-05  1.59139039825E-05  1.61544118417E-05
  1.63985545117E-05  1.66463869257E-05  1.68979648469E-05  1.71533448815E-05
  1.74125844911E-05  1.76757420056E-05  1.79428766367E-05  1.82140484907E-05
  1.84893185824E-05  1.87687488489E-05  1.90524021630E-05  1.93403423479E-05
  1.96326341915E-05  1.99293434606E-05  2.02305369161E-05  2.05362823277E-05
  2.08466484895E-05  2.11617052352E-05  2.14815234538E-05  2.18061751058E-05
  2.21357332392E-05  2.24702720059E-05  2.28098666787E-05  2.31545936677E-05
  2.35045305379E-05  2.38597560267E-05  2.42203500612E-05  2.45863937767E-05
  2.49579695346E-05  2.53351609408E-05  2.57180528652E-05  2.61067314599E-05
  2.65012841794E-05  2.69017997996E-05  2.73083684382E-05  2.77210815750E-05
  2.81400320720E-05  2.85653141950E-05  2.89970236342E-05  2.94352575261E-05
  2.98801144750E-05  3.03316945758E-05  3.07900994358E-05  3.12554321981E-05
  3.17277975645E-05  3.22073018193E-05  3.26940528527E-05  3.31881601861E-05
  3.36897349954E-05  3.41988901373E-05  3.47157401737E-05  3.52404013982E-05
  3.57729918616E-05  3.63136313991E-05  3.68624416568E-05  3.74195461195E-05
  3.79850701379E-05  3.85591409573E-05  3.91418877461E-05  3.97334416248E-05
  4.03339356955E-05  4.09435050719E-05  4.15622869096E-05  4.21904204373E-05
  4.28280469875E-05  4.34753100290E-05  4.41323551986E-05  4.47993303344E-05
  4.54763855085E-05  4.61636730612E-05  4.68613476350E-05  4.75695662098E-05
  4.82884881377E-05  4.90182751791E-05  4.97590915392E-05  5.05111039049E-05
  5.12744814820E-05  5.20493960338E-05  5.28360219193E-05  5.36345361326E-05
  5.44451183428E-05  5.52679509343E-05  5.61032190479E-05  5.69511106226E-05
  5.78118164373E-05  5.86855301547E-05  5.95724483639E-05  6.04727706254E-05
  6.13866995153E-05  6.23144406717E-05  6.32562028400E-05  6.42121979209E-05
  6.51826410172E-05  6.61677504827E-05  6.71677479712E-05  6.81828584864E-05
  6.92133104324E-05  7.02593356652E-05  7.13211695450E-05  7.23990509888E-05
  7.34932225245E-05  7.46039303453E-05  7.57314243652E-05  7.68759582751E-05
  7.80377895999E-05  7.92171797566E-05  8.04143941129E-05  8.16297020472E-05
  8.28633770088E-05  8.41156965798E-05  8.53869425374E-05  8.66774009173E-05
  8.79873620781E-05  8.93171207666E-05  9.06669761840E-05  9.20372320536E-05
  9.34281966887E-05  9.48401830621E-05  9.62735088769E-05  9.77284966374E-05
  9.92054737219E-05  1.00704772456E-04  1.02226730190E-04  1.03771689368E-04
  1.05339997615E-04  1.06932007806E-04  1.08548078149E-04  1.10188572268E-04
  1.11853859281E-04  1.13544313884E-04  1.15260316436E-04  1.17002253046E-04
  1.18770515657E-04  1.20565502134E-04  1.22387616358E-04  1.24237268312E-04
  1.26114874176E-04  1.28020856419E-04  1.29955643894E-04  1.31919671937E-04
  1.33913382463E-04  1.35937224065E-04  1.37991652116E-04  1.40077128871E-04
  1.42194123571E-04  1.44343112548E-04  1.46524579335E-04  1.48739014770E-04
  1.50986917112E-04  1.53268792146E-04  1.55585153305E-04  1.57936521780E-04
  1.60323426639E-04  1.62746404946E-04  1.65206001879E-04  1.67702770861E-04
  1.70237273673E-04  1.72810080590E-04  1.75421770504E-04  1.78072931057E-04
  1.80764158770E-04  1.83496059182E-04  1.86269246981E-04  1.89084346147E-04
  1.91941990088E-04  1.94842821786E-04  1.97787493942E-04  2.00776669118E-04
  2.03811019892E-04  2.06891229005E-04  2.10017989517E-04  2.13192004963E-04
  2.16413989510E-04  2.19684668117E-04  2.23004776701E-04  2.26375062301E-04
  2.29796283245E-04  2.33269209322E-04  2.36794621956E-04  2.40373314378E-04
  2.44006091810E-04  2.47693771642E-04  2.51437183618E-04  2.55237170021E-04
  2.59094585864E-04  2.63010299081E-04  2.66985190726E-04  2.71020155165E-04
  2.75116100282E-04  2.79273947682E-04  2.83494632899E-04  2.87779105604E-04
  2.92128329823E-04  2.96543284147E-04  3.01024961962E-04  3.05574371663E-04
  3.10192536887E-04  3.14880496740E-04  3.19639306034E-04  3.24470035519E-04
  3.29373772132E-04  3.34351619233E-04  3.39404696859E-04  3.44534141973E-04
  3.49741108723E-04  3.55026768698E-04  3.60392311194E-04  3.65838943480E-04
  3.71367891072E-04  3.76980398006E-04  3.82677727120E-04  3.88461160337E-04
  3.94331998953E-04  4.00291563934E-04  4.06341196204E-04  4.12482256959E-04
  4.18716127961E-04  4.25044211858E-04  4.31467932497E-04  4.37988735240E-04
  4.44608087297E-04  4.51327478049E-04  4.58148419388E-04  4.65072446053E-04
  4.72101115982E-04  4.79236010652E-04  4.86478735448E-04  4.93830920011E-04
  5.01294218614E-04  5.08870310531E-04  5.16560900416E-04  5.24367718681E-04
  5.32292521896E-04  5.40337093174E-04  5.48503242578E-04  5.56792807525E-04
  5.65207653202E-04  5.73749672986E-04  5.82420788867E-04  5.91222951883E-04
  6.00158142557E-04  6.09228371345E-04  6.18435679087E-04  6.27782137466E-04
  6.37269849474E-04  6.46900949887E-04  6.56677605742E-04  6.66602016830E-04
  6.76676416183E-04  6.86903070585E-04  6.97284281075E-04  7.07822383471E-04
  7.18519748889E-04  7.29378784281E-04  7.40401932977E-04  7.51591675232E-04
  7.62950528784E-04  7.74481049425E-04  7.86185831568E-04  7.98067508841E-04
  8.10128754669E-04  8.22372282886E-04  8.34800848335E-04  8.47417247497E-04
  8.60224319115E-04  8.73224944834E-04  8.86422049849E-04  8.99818603566E-04
  9.13417620264E-04  9.27222159780E-04  9.41235328194E-04  9.55460278527E-04
  9.69900211454E-04  9.84558376021E-04  9.99438070376E-04  1.01454264251E-03
  1.02987549102E-03  1.04544006587E-03  1.06123986913E-03  1.07727845585E-03
  1.09355943476E-03  1.11008646916E-03  1.12686327770E-03  1.14389363523E-03
  1.16118137365E-03  1.17873038278E-03  1.19654461122E-03  1.21462806724E-03
  1.23298481971E-03  1.25161899896E-03  1.27053479776E-03  1.28973647226E-03
  1.30922834290E-03  1.32901479544E-03  1.34910028192E-03  1.36948932166E-03
  1.39018650227E-03  1.41119648070E-03  1.43252398430E-03  1.45417381184E-03
  1.47615083462E-03  1.49845999757E-03  1.52110632033E-03  1.54409489844E-03
  1.56743090441E-03  1.59111958895E-03  1.61516628211E-03  1.63957639450E-03
  1.66435541849E-03  1.68950892947E-03  1.71504258709E-03  1.74096213653E-03
  1.76727340979E-03  1.79398232703E-03  1.82109489786E-03  1.84861722272E-03
  1.87655549426E-03  1.90491599870E-03  1.93370511727E-03  1.96292932766E-03
  1.99259520542E-03  2.02270942552E-03  2.05327876376E-03  2.08431009839E-03
  2.11581041159E-03  2.14778679105E-03  2.18024643161E-03  2.21319663681E-03
  2.24664482059E-03  2.28059850893E-03  2.31506534156E-03  2.35005307365E-03
  2.38556957761E-03  2.42162284478E-03  2.45822098730E-03  2.49537223993E-03
  2.53308496183E-03  2.57136763853E-03  2.61022888381E-03  2.64967744159E-03
  2.68972218797E-03  2.73037213320E-03  2.77163642367E-03  2.81352434403E-03
  2.85604531924E-03  2.89920891670E-03  2.94302484839E-03  2.98750297309E-03
  3.03265329856E-03  3.07848598382E-03  3.12501134141E-03  3.17223983974E-03
  3.22018210542E-03  3.26884892565E-03  3.31825125068E-03  3.36840019624E-03
  3.41930704606E-03  3.47098325439E-03  3.52344044859E-03  3.57669043176E-03
  3.63074518537E-03  3.68561687196E-03  3.74131783789E-03  3.79786061612E-03
  3.85525792902E-03  3.91352269121E-03  3.97266801252E-03  4.03270720089E-03
  4.09365376539E-03  4.15552141926E-03  4.21832408298E-03  4.28207588742E-03
  4.34679117699E-03  4.41248451292E-03  4.47917067648E-03  4.54686467234E-03
  4.61558173193E-03  4.68533731689E-03  4.75614712250E-03  4.82802708129E-03
  4.90099336653E-03  4.97506239596E-03  5.05025083542E-03  5.12657560262E-03
  5.20405387096E-03  5.28270307338E-03  5.36254090627E-03  5.44358533349E-03
  5.52585459038E-03  5.60936718786E-03  5.69414191662E-03  5.78019785134E-03
  5.86755435496E-03  5.95623108306E-03  6.04624798829E-03  6.13762532482E-03
  6.23038365294E-03  6.32454384366E-03  6.42012708344E-03  6.51715487889E-03
  6.61564906169E-03  6.71563179343E-03  6.81712557066E-03  6.92015322990E-03
  7.02473795282E-03  7.13090327141E-03  7.23867307332E-03  7.34807160721E-03
  7.45912348821E-03  7.57185370346E-03  7.68628761774E-03  7.80245097916E-03
  7.92036992497E-03  8.04007098743E-03  8.16158109978E-03  8.28492760230E-03
  8.41013824849E-03  8.53724121127E-03  8.66626508934E-03  8.79723891361E-03
  8.93019215375E-03  9.06515472480E-03  9.20215699391E-03  9.34122978716E-03
  9.48240439652E-03  9.62571258688E-03  9.77118660318E-03  9.91885917769E-03
  1.00687635374E-02  1.02209334113E-02  1.03754030384E-02  1.05322071749E-02
  1.06913811025E-02  1.08529606359E-02  1.10169821313E-02  1.11834824941E-02
  1.13524991877E-02  1.15240702414E-02  1.16982342596E-02  1.18750304299E-02
  1.20544985321E-02  1.22366789473E-02  1.24216126669E-02  1.26093413018E-02
  1.27999070916E-02  1.29933529146E-02  1.31897222968E-02  1.33890594221E-02
  1.35914091423E-02  1.37968169869E-02  1.40053291735E-02  1.42169926183E-02
  1.44318549463E-02  1.46499645027E-02  1.48713703628E-02  1.50961223440E-02
  1.53242710165E-02  1.55558677145E-02  1.57909645484E-02  1.60296144160E-02