<PP_INFO>
Generated using Vanderbilt code, version   7  0  0                              
Author: unknown    Generation date:    0    0    0                              
Automatically converted from original format                                    
    1        The Pseudo was generated with a Scalar-Relativistic Calculation
  2.21588953100E+00    Local Potential cutoff radius
nl pn  l   occ               Rcut            Rcut US             E pseu
4D  4  2  5.00     10.00000000000      1.60000000000     -0.27935308600
5S  5  0  1.00     10.00000000000      2.22000000000     -0.30417286300
5P  5  1  0.00     10.00000000000      2.50000000000     -0.08011536700
</PP_INFO>


<PP_HEADER>
   0                   Version Number
  Mo                   Element
   US                  Ultrasoft pseudopotential
    T                  Nonlinear Core Correction
 SLA  PW   GGX  GGC    PW91 Exchange-Correlation functional
    6.00000000000      Z valence
  -28.49089232150      Total energy
  0.0000000  0.0000000 Suggested cutoff for wfc and rho
    2                  Max angular momentum component
  965                  Number of points in mesh
    3    3             Number of Wavefunctions, Number of Projectors
 Wavefunctions         nl  l   occ
                       4D  2  5.00
                       5S  0  1.00
                       5P  1  0.00
</PP_HEADER>


<PP_MESH>
  <PP_R>
  0.00000000000E+00  3.64890228247E-07  7.35912922225E-07  1.11317114618E-06
  1.49676969648E-06  1.88681513076E-06  2.28341579748E-06  2.68668186602E-06
  3.09672535736E-06  3.51366017507E-06  3.93760213709E-06  4.36866900778E-06
  4.80698053072E-06  5.25265846193E-06  5.70582660369E-06  6.16661083897E-06
  6.63513916634E-06  7.11154173557E-06  7.59595088378E-06  8.08850117218E-06
  8.58932942346E-06  9.09857475979E-06  9.61637864150E-06  1.01428849063E-05
  1.06782398094E-05  1.12225920638E-05  1.17760928821E-05  1.23388960179E-05
  1.29111578093E-05  1.34930372213E-05  1.40846958910E-05  1.46862981718E-05
  1.52980111793E-05  1.59200048377E-05  1.65524519270E-05  1.71955281310E-05
  1.78494120862E-05  1.85142854311E-05  1.91903328572E-05  1.98777421597E-05
  2.05767042900E-05  2.12874134088E-05  2.20100669399E-05  2.27448656249E-05
  2.34920135795E-05  2.42517183494E-05  2.50241909686E-05  2.58096460179E-05
  2.66083016843E-05  2.74203798217E-05  2.82461060125E-05  2.90857096306E-05
  2.99394239044E-05  3.08074859823E-05  3.16901369984E-05  3.25876221390E-05
  3.35001907114E-05  3.44280962128E-05  3.53715964005E-05  3.63309533642E-05
  3.73064335979E-05  3.82983080747E-05  3.93068523217E-05  4.03323464965E-05
  4.13750754652E-05  4.24353288815E-05  4.35134012670E-05  4.46095920932E-05
  4.57242058645E-05  4.68575522032E-05  4.80099459348E-05  4.91817071763E-05
  5.03731614243E-05  5.15846396461E-05  5.28164783711E-05  5.40690197846E-05
  5.53426118231E-05  5.66376082700E-05  5.79543688552E-05  5.92932593537E-05
  6.06546516883E-05  6.20389240323E-05  6.34464609147E-05  6.48776533269E-05
  6.63328988316E-05  6.78126016731E-05  6.93171728894E-05  7.08470304267E-05
  7.24025992552E-05  7.39843114873E-05  7.55926064978E-05  7.72279310457E-05
  7.88907393981E-05  8.05814934571E-05  8.23006628874E-05  8.40487252471E-05
  8.58261661204E-05  8.76334792523E-05  8.94711666857E-05  9.13397389014E-05
  9.32397149590E-05  9.51716226419E-05  9.71359986037E-05  9.91333885169E-05
  1.01164347225E-04  1.03229438896E-04  1.05329237180E-04  1.07464325367E-04
  1.09635296553E-04  1.11842753797E-04  1.14087310296E-04  1.16369589554E-04
  1.18690225552E-04  1.21049862924E-04  1.23449157142E-04  1.25888774691E-04
  1.28369393259E-04  1.30891701921E-04  1.33456401337E-04  1.36064203938E-04
  1.38715834132E-04  1.41412028498E-04  1.44153535998E-04  1.46941118179E-04
  1.49775549386E-04  1.52657616981E-04  1.55588121556E-04  1.58567877160E-04
  1.61597711520E-04  1.64678466278E-04  1.67810997218E-04  1.70996174508E-04
  1.74234882940E-04  1.77528022175E-04  1.80876506997E-04  1.84281267561E-04
  1.87743249656E-04  1.91263414966E-04  1.94842741337E-04  1.98482223049E-04
  2.02182871094E-04  2.05945713452E-04  2.09771795382E-04  2.13662179709E-04
  2.17617947121E-04  2.21640196466E-04  2.25730045063E-04  2.29888629007E-04
  2.34117103486E-04  2.38416643105E-04  2.42788442207E-04  2.47233715209E-04
  2.51753696937E-04  2.56349642972E-04  2.61022829995E-04  2.65774556142E-04
  2.70606141369E-04  2.75518927814E-04  2.80514280171E-04  2.85593586070E-04
  2.90758256462E-04  2.96009726010E-04  3.01349453492E-04  3.06778922197E-04
  3.12299640347E-04  3.17913141511E-04  3.23620985029E-04  3.29424756452E-04
  3.35326067974E-04  3.41326558888E-04  3.47427896035E-04  3.53631774269E-04
  3.59939916931E-04  3.66354076322E-04  3.72876034195E-04  3.79507602247E-04
  3.86250622623E-04  3.93106968427E-04  4.00078544244E-04  4.07167286667E-04
  4.14375164838E-04  4.21704180990E-04  4.29156371009E-04  4.36733804996E-04
  4.44438587842E-04  4.52272859814E-04  4.60238797149E-04  4.68338612659E-04
  4.76574556344E-04  4.84948916020E-04  4.93464017951E-04  5.02122227499E-04
  5.10925949776E-04  5.19877630320E-04  5.28979755763E-04  5.38234854535E-04
  5.47645497554E-04  5.57214298948E-04  5.66943916781E-04  5.76837053785E-04
  5.86896458118E-04  5.97124924124E-04  6.07525293109E-04  6.18100454131E-04
  6.28853344803E-04  6.39786952109E-04  6.50904313231E-04  6.62208516397E-04
  6.73702701737E-04  6.85390062152E-04  6.97273844209E-04  7.09357349032E-04
  7.21643933230E-04  7.34137009822E-04  7.46840049186E-04  7.59756580026E-04
  7.72890190352E-04  7.86244528471E-04  7.99823304009E-04  8.13630288935E-04
  8.27669318612E-04  8.41944292859E-04  8.56459177040E-04  8.71218003160E-04
  8.86224870988E-04  9.01483949194E-04  9.16999476511E-04  9.32775762905E-04
  9.48817190781E-04  9.65128216194E-04  9.81713370089E-04  9.98577259559E-04
  1.01572456913E-03  1.03316006205E-03  1.05088858162E-03  1.06891505255E-03
  1.08724448231E-03  1.10588196251E-03  1.12483267037E-03  1.14410187009E-03
  1.16369491434E-03  1.18361724577E-03  1.20387439848E-03  1.22447199959E-03
  1.24541577079E-03  1.26671152993E-03  1.28836519264E-03  1.31038277395E-03
  1.33277039001E-03  1.35553425974E-03  1.37868070659E-03  1.40221616027E-03
  1.42614715856E-03  1.45048034912E-03  1.47522249131E-03  1.50038045812E-03
  1.52596123804E-03  1.55197193699E-03  1.57841978034E-03  1.60531211488E-03
  1.63265641089E-03  1.66046026416E-03  1.68873139818E-03  1.71747766622E-03
  1.74670705354E-03  1.77642767960E-03  1.80664780032E-03  1.83737581037E-03
  1.86862024551E-03  1.90038978495E-03  1.93269325377E-03  1.96553962536E-03
  1.99893802392E-03  2.03289772700E-03  2.06742816807E-03  2.10253893914E-03
  2.13823979343E-03  2.17454064807E-03  2.21145158686E-03  2.24898286310E-03
  2.28714490235E-03  2.32594830545E-03  2.36540385136E-03  2.40552250021E-03
  2.44631539633E-03  2.48779387134E-03  2.52996944730E-03  2.57285383993E-03
  2.61645896183E-03  2.66079692581E-03  2.70588004827E-03  2.75172085257E-03
  2.79833207258E-03  2.84572665615E-03  2.89391776875E-03  2.94291879711E-03
  2.99274335294E-03  3.04340527672E-03  3.09491864153E-03  3.14729775696E-03
  3.20055717312E-03  3.25471168462E-03  3.30977633473E-03  3.36576641955E-03
  3.42269749222E-03  3.48058536732E-03  3.53944612517E-03  3.59929611636E-03
  3.66015196628E-03  3.72203057972E-03  3.78494914557E-03  3.84892514164E-03
  3.91397633943E-03  3.98012080914E-03  4.04737692467E-03  4.11576336869E-03
  4.18529913788E-03  4.25600354819E-03  4.32789624017E-03  4.40099718449E-03
  4.47532668743E-03  4.55090539655E-03  4.62775430643E-03  4.70589476448E-03
  4.78534847688E-03  4.86613751463E-03  4.94828431963E-03  5.03181171098E-03
  5.11674289127E-03  5.20310145303E-03  5.29091138531E-03  5.38019708032E-03
  5.47098334022E-03  5.56329538401E-03  5.65715885449E-03  5.75259982548E-03
  5.84964480895E-03  5.94832076248E-03  6.04865509669E-03  6.15067568287E-03
  6.25441086072E-03  6.35988944624E-03  6.46714073973E-03  6.57619453388E-03
  6.68708112213E-03  6.79983130702E-03  6.91447640876E-03  7.03104827396E-03
  7.14957928444E-03  7.27010236625E-03  7.39265099879E-03  7.51725922413E-03
  7.64396165648E-03  7.77279349177E-03  7.90379051744E-03  8.03698912241E-03
  8.17242630714E-03  8.31013969394E-03  8.45016753742E-03  8.59254873510E-03
  8.73732283824E-03  8.88453006277E-03  9.03421130056E-03  9.18640813069E-03
  9.34116283102E-03  9.49851838998E-03  9.65851851845E-03  9.82120766194E-03
  9.98663101293E-03  1.01548345234E-02  1.03258649177E-02  1.04997697052E-02
  1.06765971941E-02  1.08563965042E-02  1.10392175808E-02  1.12251112089E-02
  1.14141290268E-02  1.16063235405E-02  1.18017481387E-02  1.20004571073E-02
  1.22025056445E-02  1.24079498761E-02  1.26168468713E-02  1.28292546585E-02
  1.30452322412E-02  1.32648396144E-02  1.34881377817E-02  1.37151887718E-02
  1.39460556558E-02  1.41808025650E-02  1.44194947083E-02  1.46621983906E-02
  1.49089810311E-02  1.51599111823E-02  1.54150585485E-02  1.56744940056E-02
  1.59382896207E-02  1.62065186721E-02  1.64792556695E-02  1.67565763751E-02
  1.70385578240E-02  1.73252783463E-02  1.76168175885E-02  1.79132565355E-02
  1.82146775333E-02  1.85211643120E-02  1.88328020088E-02  1.91496771917E-02
  1.94718778836E-02  1.97994935868E-02  2.01326153077E-02  2.04713355824E-02
  2.08157485018E-02  2.11659497386E-02  2.15220365731E-02  2.18841079206E-02
  2.22522643587E-02  2.26266081556E-02  2.30072432980E-02  2.33942755204E-02
  2.37878123342E-02  2.41879630576E-02  2.45948388464E-02  2.50085527241E-02
  2.54292196138E-02  2.58569563704E-02  2.62918818121E-02  2.67341167546E-02
  2.71837840436E-02  2.76410085896E-02  2.81059174024E-02  2.85786396263E-02
  2.90593065761E-02  2.95480517734E-02  3.00450109840E-02  3.05503222553E-02
  3.10641259547E-02  3.15865648089E-02  3.21177839431E-02  3.26579309216E-02
  3.32071557886E-02  3.37656111102E-02  3.43334520164E-02  3.49108362445E-02
  3.54979241828E-02  3.60948789148E-02  3.67018662653E-02  3.73190548458E-02
  3.79466161015E-02  3.85847243590E-02  3.92335568746E-02  3.98932938839E-02
  4.05641186514E-02  4.12462175215E-02  4.19397799706E-02  4.26449986593E-02
  4.33620694863E-02  4.40911916426E-02  4.48325676667E-02  4.55864035012E-02
  4.63529085497E-02  4.71322957354E-02  4.79247815596E-02  4.87305861624E-02
  4.95499333836E-02  5.03830508249E-02  5.12301699132E-02  5.20915259647E-02
  5.29673582506E-02  5.38579100633E-02  5.47634287840E-02  5.56841659514E-02
  5.66203773319E-02  5.75723229902E-02  5.85402673617E-02  5.95244793261E-02
  6.05252322820E-02  6.15428042226E-02  6.25774778135E-02  6.36295404706E-02
  6.46992844403E-02  6.57870068806E-02  6.68930099436E-02  6.80176008595E-02
  6.91610920218E-02  7.03238010744E-02  7.15060509995E-02  7.27081702075E-02
  7.39304926280E-02  7.51733578030E-02  7.64371109807E-02  7.77221032118E-02
  7.90286914469E-02  8.03572386356E-02  8.17081138273E-02  8.30816922737E-02
  8.44783555334E-02  8.58984915772E-02  8.73424948965E-02  8.88107666127E-02
  9.03037145885E-02  9.18217535412E-02  9.33653051581E-02  9.49347982134E-02
  9.65306686876E-02  9.81533598882E-02  9.98033225732E-02  1.01481015076E-01
  1.03186903434E-01  1.04921461515E-01  1.06685171152E-01  1.08478522276E-01
  1.10302013051E-01  1.12156150015E-01  1.14041448217E-01  1.15958431364E-01
  1.17907631963E-01  1.19889591471E-01  1.21904860445E-01  1.23953998696E-01
  1.26037575441E-01  1.28156169465E-01  1.30310369280E-01  1.32500773289E-01
  1.34727989952E-01  1.36992637953E-01  1.39295346377E-01  1.41636754880E-01
  1.44017513868E-01  1.46438284677E-01  1.48899739761E-01  1.51402562872E-01
  1.53947449255E-01  1.56535105840E-01  1.59166251436E-01  1.61841616934E-01
  1.64561945509E-01  1.67327992824E-01  1.70140527245E-01  1.73000330048E-01
  1.75908195642E-01  1.78864931786E-01  1.81871359814E-01  1.84928314865E-01
  1.88036646113E-01  1.91197217002E-01  1.94410905491E-01  1.97678604289E-01
  2.01001221113E-01  2.04379678934E-01  2.07814916232E-01  2.11307887264E-01
  2.14859562321E-01  2.18470928002E-01  2.22142987488E-01  2.25876760819E-01
  2.29673285178E-01  2.33533615180E-01  2.37458823163E-01  2.41449999489E-01
  2.45508252842E-01  2.49634710542E-01  2.53830518853E-01  2.58096843306E-01
  2.62434869016E-01  2.66845801020E-01  2.71330864604E-01  2.75891305649E-01
  2.80528390973E-01  2.85243408684E-01  2.90037668541E-01  2.94912502314E-01
  2.99869264153E-01  3.04909330969E-01  3.10034102813E-01  3.15245003266E-01
  3.20543479834E-01  3.25931004350E-01  3.31409073382E-01  3.36979208653E-01
  3.42642957457E-01  3.48401893095E-01  3.54257615307E-01  3.60211750722E-01
  3.66265953304E-01  3.72421904815E-01  3.78681315280E-01  3.85045923466E-01
  3.91517497360E-01  3.98097834663E-01  4.04788763289E-01  4.11592141871E-01
  4.18509860282E-01  4.25543840154E-01  4.32696035416E-01  4.39968432834E-01
  4.47363052566E-01  4.54881948721E-01  4.62527209928E-01  4.70300959921E-01
  4.78205358124E-01  4.86242600256E-01  4.94414918934E-01  5.02724584299E-01
  5.11173904647E-01  5.19765227063E-01  5.28500938083E-01  5.37383464348E-01
  5.46415273284E-01  5.55598873785E-01  5.64936816910E-01  5.74431696593E-01
  5.84086150361E-01  5.93902860068E-01  6.03884552642E-01  6.14034000839E-01
  6.24354024015E-01  6.34847488911E-01  6.45517310445E-01  6.56366452525E-01
  6.67397928870E-01  6.78614803852E-01  6.90020193341E-01  7.01617265574E-01
  7.13409242034E-01  7.25399398347E-01  7.37591065187E-01  7.49987629209E-01
  7.62592533981E-01  7.75409280948E-01  7.88441430398E-01  8.01692602458E-01
  8.15166478093E-01  8.28866800134E-01  8.42797374314E-01  8.56962070325E-01
  8.71364822898E-01  8.86009632889E-01  9.00900568395E-01  9.16041765883E-01
  9.31437431338E-01  9.47091841433E-01  9.63009344717E-01  9.79194362819E-01
  9.95651391683E-01  1.01238500281E+00  1.02939984454E+00  1.04670064331E+00
  1.06429220503E+00  1.08217941635E+00  1.10036724605E+00  1.11886074642E+00
  1.13766505467E+00  1.15678539434E+00  1.17622707675E+00  1.19599550250E+00
  1.21609616295E+00  1.23653464173E+00  1.25731661635E+00  1.27844785969E+00
  1.29993424169E+00  1.32178173093E+00  1.34399639629E+00  1.36658440865E+00
  1.38955204262E+00  1.41290567822E+00  1.43665180275E+00  1.46079701248E+00
  1.48534801459E+00  1.51031162896E+00  1.53569479007E+00  1.56150454897E+00
  1.58774807521E+00  1.61443265883E+00  1.64156571237E+00  1.66915477297E+00
  1.69720750444E+00  1.72573169938E+00  1.75473528137E+00  1.78422630714E+00
  1.81421296883E+00  1.84470359627E+00  1.87570665926E+00  1.90723076998E+00
  1.93928468531E+00  1.97187730933E+00  2.00501769577E+00  2.03871505048E+00
  2.07297873407E+00  2.10781826445E+00  2.14324331949E+00  2.17926373971E+00
  2.21588953100E+00  2.25313086745E+00  2.29099809410E+00  2.32950172988E+00
  2.36865247048E+00  2.40846119135E+00  2.44893895075E+00  2.49009699274E+00
  2.53194675039E+00  2.57449984888E+00  2.61776810881E+00  2.66176354941E+00
  2.70649839193E+00  2.75198506298E+00  2.79823619806E+00  2.84526464499E+00
  2.89308346754E+00  2.94170594902E+00  2.99114559599E+00  3.04141614200E+00
  3.09253155142E+00  3.14450602329E+00  3.19735399531E+00  3.25109014781E+00
  3.30572940784E+00  3.36128695332E+00  3.41777821727E+00  3.47521889207E+00
  3.53362493382E+00  3.59301256681E+00  3.65339828798E+00  3.71479887153E+00
  3.77723137358E+00  3.84071313688E+00  3.90526179567E+00  3.97089528054E+00
  4.03763182344E+00  4.10548996274E+00  4.17448854834E+00  4.24464674696E+00
  4.31598404746E+00  4.38852026619E+00  4.46227555258E+00  4.53727039468E+00
  4.61352562488E+00  4.69106242566E+00  4.76990233554E+00  4.85006725500E+00
  4.93157945257E+00  5.01446157106E+00  5.09873663383E+00  5.18442805114E+00
  5.27155962672E+00  5.36015556435E+00  5.45024047457E+00  5.54183938156E+00
  5.63497773005E+00  5.72968139239E+00  5.82597667577E+00  5.92389032949E+00
  6.02344955243E+00  6.12468200057E+00  6.22761579467E+00  6.33227952812E+00
  6.43870227486E+00  6.54691359744E+00  6.65694355526E+00  6.76882271290E+00
  6.88258214863E+00  6.99825346302E+00  7.11586878774E+00  7.23546079446E+00
  7.35706270396E+00  7.48070829533E+00  7.60643191535E+00  7.73426848807E+00
  7.86425352447E+00  7.99642313233E+00  8.13081402629E+00  8.26746353802E+00
  8.40640962658E+00  8.54769088902E+00  8.69134657103E+00  8.83741657790E+00
  8.98594148556E+00  9.13696255188E+00  9.29052172815E+00  9.44666167066E+00
  9.60542575264E+00  9.76685807623E+00  9.93100348478E+00  1.00979075753E+01
  1.02676167111E+01  1.04401780347E+01  1.06156394810E+01  1.07940497902E+01
  1.09754585221E+01  1.11599160691E+01  1.13474736705E+01  1.15381834269E+01
  1.17320983146E+01  1.19292721998E+01  1.21297598546E+01  1.23336169711E+01
  1.25409001777E+01  1.27516670543E+01  1.29659761487E+01  1.31838869925E+01
  1.34054601180E+01  1.36307570746E+01  1.38598404463E+01  1.40927738688E+01
  1.43296220474E+01  1.45704507747E+01  1.48153269492E+01  1.50643185936E+01
  1.53174948738E+01  1.55749261182E+01  1.58366838372E+01  1.61028407429E+01
  1.63734707695E+01  1.66486490937E+01  1.69284521557E+01  1.72129576805E+01
  1.75022446990E+01  1.77963935709E+01  1.80954860058E+01  1.83996050870E+01
  1.87088352939E+01  1.90232625259E+01  1.93429741258E+01  1.96680589045E+01
  1.99986071654E+01  2.03347107296E+01  2.06764629613E+01  2.10239587940E+01
  2.13772947564E+01  2.17365689997E+01  2.21018813247E+01  2.24733332093E+01
  2.28510278370E+01  2.32350701253E+01  2.36255667553E+01  2.40226262007E+01
  2.44263587582E+01  2.48368765785E+01  2.52542936970E+01  2.56787260654E+01
  2.61102915844E+01  2.65491101362E+01  2.69953036175E+01  2.74489959738E+01
  2.79103132338E+01  2.83793835441E+01  2.88563372050E+01  2.93413067067E+01
  2.98344267661E+01  3.03358343641E+01  3.08456687838E+01  3.13640716493E+01
  3.18911869646E+01  3.24271611540E+01  3.29721431027E+01  3.35262841982E+01
  3.40897383719E+01  3.46626621427E+01  3.52452146596E+01  3.58375577466E+01
  3.64398559472E+01  3.70522765704E+01  3.76749897369E+01  3.83081684266E+01
  3.89519885265E+01  3.96066288798E+01  4.02722713351E+01  4.09491007975E+01
  4.16373052794E+01  4.23370759532E+01  4.30486072041E+01  4.37720966844E+01
  4.45077453678E+01  4.52557576061E+01  4.60163411852E+01  4.67897073832E+01
  4.75760710291E+01  4.83756505622E+01  4.91886680931E+01  5.00153494652E+01
  5.08559243176E+01  5.17106261487E+01  5.25796923811E+01  5.34633644277E+01
  5.43618877588E+01  5.52755119697E+01  5.62044908511E+01  5.71490824584E+01
  5.81095491843E+01  5.90861578314E+01  6.00791796861E+01  6.10888905941E+01
  6.21155710373E+01  6.31595062111E+01  6.42209861044E+01  6.53003055795E+01
  6.63977644543E+01  6.75136675855E+01  6.86483249535E+01  6.98020517480E+01
  7.09751684562E+01  7.21680009514E+01  7.33808805836E+01  7.46141442716E+01
  7.58681345966E+01  7.71431998973E+01  7.84396943667E+01  7.97579781505E+01
  8.10984174472E+01  8.24613846095E+01  8.38472582482E+01  8.52564233372E+01
  8.66892713202E+01  8.81462002199E+01  8.96276147480E+01  9.11339264180E+01
  9.26655536597E+01  9.42229219348E+01  9.58064638557E+01  9.74166193053E+01
  9.90538355594E+01  1.00718567411E+02  1.02411277296E+02  1.04132435422E+02
  1.05882519900E+02  1.07662016877E+02  1.09471420667E+02  1.11311233896E+02
  1.13181967633E+02  1.15084141540E+02  1.17018284010E+02  1.18984932317E+02
  1.20984632766E+02  1.23017940840E+02  1.25085421362E+02  1.27187648645E+02
  1.29325206654E+02  1.31498689170E+02  1.33708699950E+02  1.35955852902E+02
  1.38240772248E+02  1.40564092705E+02  1.42926459652E+02  1.45328529319E+02
  1.47770968962E+02  1.50254457053E+02  1.52779683465E+02  1.55347349666E+02
  1.57958168914E+02  1.60612866453E+02  1.63312179716E+02  1.66056858529E+02
  1.68847665321E+02  1.71685375335E+02  1.74570776840E+02  1.77504671356E+02
  1.80487873873E+02  1.83521213077E+02  1.86605531582E+02  1.89741686162E+02
  1.92930547993E+02  1.96173002889E+02  1.99469951553E+02  2.02822309826E+02
  2.06231008939E+02
  </PP_R>
  <PP_RAB>
  3.61857922839E-07  3.67939426643E-07  3.74123138210E-07  3.80410775275E-07
  3.86804084447E-07  3.93304841685E-07  3.99914852797E-07  4.06635953940E-07
  4.13470012128E-07  4.20418925757E-07  4.27484625124E-07  4.34669072969E-07
  4.41974265018E-07  4.49402230538E-07  4.56955032901E-07  4.64634770155E-07
  4.72443575611E-07  4.80383618432E-07  4.88457104236E-07  4.96666275709E-07
  5.05013413230E-07  5.13500835502E-07  5.22130900197E-07  5.30906004611E-07
  5.39828586329E-07  5.48901123902E-07  5.58126137540E-07  5.67506189805E-07
  5.77043886327E-07  5.86741876528E-07  5.96602854356E-07  6.06629559036E-07
  6.16824775827E-07  6.27191336800E-07  6.37732121622E-07  6.48450058356E-07
  6.59348124275E-07  6.70429346692E-07  6.81696803793E-07  6.93153625500E-07
  7.04802994339E-07  7.16648146319E-07  7.28692371837E-07  7.40939016588E-07
  7.53391482497E-07  7.66053228662E-07  7.78927772316E-07  7.92018689805E-07
  8.05329617578E-07  8.18864253201E-07  8.32626356381E-07  8.46619750015E-07
  8.60848321245E-07  8.75316022545E-07  8.90026872812E-07  9.04984958489E-07
  9.20194434696E-07  9.35659526385E-07  9.51384529514E-07  9.67373812242E-07
  9.83631816137E-07  1.00016305742E-06  1.01697212820E-06  1.03406369778E-06
  1.05144251393E-06  1.06911340420E-06  1.08708127729E-06  1.10535112439E-06
  1.12392802058E-06  1.14281712623E-06  1.16202368842E-06  1.18155304244E-06
  1.20141061324E-06  1.22160191694E-06  1.24213256236E-06  1.26300825258E-06
  1.28423478656E-06  1.30581806067E-06  1.32776407043E-06  1.35007891207E-06
  1.37276878431E-06  1.39583999004E-06  1.41929893808E-06  1.44315214495E-06
  1.46740623670E-06  1.49206795072E-06  1.51714413766E-06  1.54264176328E-06
  1.56856791043E-06  1.59492978096E-06  1.62173469780E-06  1.64899010693E-06
  1.67670357947E-06  1.70488281379E-06  1.73353563763E-06  1.76267001029E-06
  1.79229402485E-06  1.82241591038E-06  1.85304403427E-06  1.88418690453E-06
  1.91585317216E-06  1.94805163354E-06  1.98079123290E-06  2.01408106479E-06
  2.04793037659E-06  2.08234857110E-06  2.11734520917E-06  2.15293001230E-06
  2.18911286538E-06  2.22590381945E-06  2.26331309445E-06  2.30135108208E-06
  2.34002834870E-06  2.37935563824E-06  2.41934387520E-06  2.46000416769E-06
  2.50134781048E-06  2.54338628820E-06  2.58613127846E-06  2.62959465514E-06
  2.67378849170E-06  2.71872506448E-06  2.76441685614E-06  2.81087655915E-06
  2.85811707928E-06  2.90615153919E-06  2.95499328211E-06  3.00465587550E-06
  3.05515311484E-06  3.10649902747E-06  3.15870787647E-06  3.21179416464E-06
  3.26577263850E-06  3.32065829243E-06  3.37646637279E-06  3.43321238219E-06
  3.49091208377E-06  3.54958150560E-06  3.60923694512E-06  3.66989497366E-06
  3.73157244107E-06  3.79428648037E-06  3.85805451254E-06  3.92289425133E-06
  3.98882370819E-06  4.05586119728E-06  4.12402534056E-06  4.19333507296E-06
  4.26380964761E-06  4.33546864126E-06  4.40833195962E-06  4.48241984299E-06
  4.55775287180E-06  4.63435197238E-06  4.71223842275E-06  4.79143385854E-06
  4.87196027900E-06  4.95384005307E-06  5.03709592569E-06  5.12175102400E-06
  5.20782886387E-06  5.29535335635E-06  5.38434881437E-06  5.47483995945E-06
  5.56685192863E-06  5.66041028135E-06  5.75554100666E-06  5.85227053037E-06
  5.95062572241E-06  6.05063390431E-06  6.15232285675E-06  6.25572082732E-06
  6.36085653835E-06  6.46775919487E-06  6.57645849276E-06  6.68698462696E-06
  6.79936829989E-06  6.91364072996E-06  7.02983366024E-06  7.14797936729E-06
  7.26811067013E-06  7.39026093934E-06  7.51446410633E-06  7.64075467277E-06
  7.76916772020E-06  7.89973891974E-06  8.03250454199E-06  8.16750146715E-06
  8.30476719523E-06  8.44433985650E-06  8.58625822202E-06  8.73056171448E-06
  8.87729041911E-06  9.02648509483E-06  9.17818718556E-06  9.33243883175E-06
  9.48928288207E-06  9.64876290531E-06  9.81092320252E-06  9.97580881925E-06
  1.01434655581E-05  1.03139399916E-05  1.04872794747E-05  1.06635321584E-05
  1.08427470029E-05  1.10249737913E-05  1.12102631434E-05  1.13986665295E-05
  1.15902362851E-05  1.17850256254E-05  1.19830886597E-05  1.21844804067E-05
  1.23892568100E-05  1.25974747532E-05  1.28091920759E-05  1.30244675899E-05
  1.32433610954E-05  1.34659333974E-05  1.36922463230E-05  1.39223627384E-05
  1.41563465664E-05  1.43942628038E-05  1.46361775402E-05  1.48821579755E-05
  1.51322724393E-05  1.53865904094E-05  1.56451825314E-05  1.59081206379E-05
  1.61754777692E-05  1.64473281927E-05  1.67237474243E-05  1.70048122488E-05
  1.72906007416E-05  1.75811922903E-05  1.78766676165E-05  1.81771087987E-05
  1.84825992946E-05  1.87932239647E-05  1.91090690957E-05  1.94302224243E-05
  1.97567731619E-05  2.00888120190E-05  2.04264312308E-05  2.07697245827E-05
  2.11187874361E-05  2.14737167551E-05  2.18346111335E-05  2.22015708221E-05
  2.25746977564E-05  2.29540955853E-05  2.33398696994E-05  2.37321272607E-05
  2.41309772322E-05  2.45365304081E-05  2.49488994447E-05  2.53681988916E-05
  2.57945452234E-05  2.62280568726E-05  2.66688542618E-05  2.71170598376E-05
  2.75727981043E-05  2.80361956589E-05  2.85073812259E-05  2.89864856932E-05
  2.94736421485E-05  2.99689859162E-05  3.04726545948E-05  3.09847880957E-05
  3.15055286814E-05  3.20350210054E-05  3.25734121523E-05  3.31208516788E-05
  3.36774916548E-05  3.42434867061E-05  3.48189940573E-05  3.54041735751E-05
  3.59991878133E-05  3.66042020573E-05  3.72193843706E-05  3.78449056411E-05
  3.84809396287E-05  3.91276630137E-05  3.97852554456E-05  4.04538995931E-05
  4.11337811951E-05  4.18250891119E-05  4.25280153779E-05  4.32427552550E-05
  4.39695072866E-05  4.47084733530E-05  4.54598587273E-05  4.62238721323E-05
  4.70007257991E-05  4.77906355253E-05  4.85938207353E-05  4.94105045413E-05
  5.02409138052E-05  5.10852792015E-05  5.19438352816E-05  5.28168205389E-05
  5.37044774748E-05  5.46070526665E-05  5.55247968350E-05  5.64579649153E-05
  5.74068161266E-05  5.83716140448E-05  5.93526266756E-05  6.03501265289E-05
  6.13643906941E-05  6.23957009181E-05  6.34443436824E-05  6.45106102835E-05
  6.55947969133E-05  6.66972047419E-05  6.78181400006E-05  6.89579140676E-05
  7.01168435542E-05  7.12952503926E-05  7.24934619257E-05  7.37118109977E-05
  7.49506360467E-05  7.62102811987E-05  7.74910963634E-05  7.87934373308E-05
  8.01176658709E-05  8.14641498333E-05  8.28332632500E-05  8.42253864392E-05
  8.56409061106E-05  8.70802154733E-05  8.85437143446E-05  9.00318092615E-05
  9.15449135932E-05  9.30834476563E-05  9.46478388311E-05  9.62385216808E-05
  9.78559380721E-05  9.95005372976E-05  1.01172776201E-04  1.02873119304E-04
  1.04602038935E-04  1.06360015360E-04  1.08147536918E-04  1.09965100154E-04
  1.11813209958E-04  1.13692379706E-04  1.15603131402E-04  1.17545995822E-04
  1.19521512664E-04  1.21530230694E-04  1.23572707903E-04  1.25649511658E-04
  1.27761218864E-04  1.29908416119E-04  1.32091699880E-04  1.34311676630E-04
  1.36568963042E-04  1.38864186155E-04  1.41197983547E-04  1.43571003508E-04
  1.45983905227E-04  1.48437358969E-04  1.50932046266E-04  1.53468660101E-04
  1.56047905107E-04  1.58670497756E-04  1.61337166564E-04  1.64048652289E-04
  1.66805708138E-04  1.69609099980E-04  1.72459606550E-04  1.75358019676E-04
  1.78305144491E-04  1.81301799659E-04  1.84348817604E-04  1.87447044738E-04
  1.90597341702E-04  1.93800583598E-04  1.97057660235E-04  2.00369476378E-04
  2.03736951997E-04  2.07161022524E-04  2.10642639112E-04  2.14182768898E-04
  2.17782395275E-04  2.21442518163E-04  2.25164154285E-04  2.28948337453E-04
  2.32796118853E-04  2.36708567339E-04  2.40686769727E-04  2.44731831099E-04
  2.48844875108E-04  2.53027044294E-04  2.57279500397E-04  2.61603424683E-04
  2.66000018268E-04  2.70470502458E-04  2.75016119082E-04  2.79638130841E-04
  2.84337821656E-04  2.89116497028E-04  2.93975484398E-04  2.98916133514E-04
  3.03939816811E-04  3.09047929790E-04  3.14241891403E-04  3.19523144452E-04
  3.24893155983E-04  3.30353417703E-04  3.35905446385E-04  3.41550784296E-04
  3.47290999620E-04  3.53127686900E-04  3.59062467475E-04  3.65096989932E-04
  3.71232930568E-04  3.77471993849E-04  3.83815912890E-04  3.90266449929E-04
  3.96825396825E-04  4.03494575550E-04  4.10275838696E-04  4.17171069990E-04
  4.24182184820E-04  4.31311130762E-04  4.38559888125E-04  4.45930470499E-04
  4.53424925316E-04  4.61045334416E-04  4.68793814629E-04  4.76672518361E-04
  4.84683634191E-04  4.92829387480E-04  5.01112040990E-04  5.09533895511E-04
  5.18097290502E-04  5.26804604738E-04  5.35658256975E-04  5.44660706615E-04
  5.53814454399E-04  5.63122043093E-04  5.72586058197E-04  5.82209128665E-04
  5.91993927635E-04  6.01943173170E-04  6.12059629012E-04  6.22346105353E-04
  6.32805459614E-04  6.43440597239E-04  6.54254472500E-04  6.65250089322E-04
  6.76430502112E-04  6.87798816614E-04  6.99358190765E-04  7.11111835578E-04
  7.23063016028E-04  7.35215051965E-04  7.47571319034E-04  7.60135249609E-04
  7.72910333752E-04  7.85900120180E-04  7.99108217250E-04  8.12538293964E-04
  8.26194080984E-04  8.40079371672E-04  8.54198023143E-04  8.68553957335E-04
  8.83151162100E-04  8.97993692311E-04  9.13085670989E-04  9.28431290447E-04
  9.44034813455E-04  9.59900574426E-04  9.76032980618E-04  9.92436513358E-04
  1.00911572929E-03  1.02607526163E-03  1.04331982148E-03  1.06085419910E-03
  1.07868326526E-03  1.09681197260E-03  1.11524535698E-03  1.13398853891E-03
  1.15304672495E-03  1.17242520916E-03  1.19212937458E-03  1.21216469471E-03
  1.23253673506E-03  1.25325115464E-03  1.27431370760E-03  1.29573024479E-03
  1.31750671537E-03  1.33964916852E-03  1.36216375504E-03  1.38505672915E-03
  1.40833445015E-03  1.43200338421E-03  1.45607010620E-03  1.48054130147E-03
  1.50542376773E-03  1.53072441694E-03  1.55645027722E-03  1.58260849481E-03
  1.60920633605E-03  1.63625118939E-03  1.66375056748E-03  1.69171210919E-03
  1.72014358182E-03  1.74905288317E-03  1.77844804378E-03  1.80833722918E-03
  1.83872874211E-03  1.86963102484E-03  1.90105266154E-03  1.93300238065E-03