<PP_INFO>
Generated using Vanderbilt code, version   7  3  5                              
Author: G. Mattioli    Generation date:   18    9 2008                              
Automatically converted from original format                                    
    1        The Pseudo was generated with a Scalar-Relativistic Calculation
  1.00000000000E+00    Local Potential cutoff radius
nl pn  l   occ               Rcut            Rcut US             E pseu
2S  2  0  2.00      0.80000000000      1.10000000000     -2.68819645303
2P  2  1  3.00      0.80000000000      1.10000000000     -1.84267795968
</PP_INFO>


<PP_HEADER>
   0                   Version Number
   N                   Element
   US                  Ultrasoft pseudopotential
    F                  Nonlinear Core Correction
SLA  PW   PBE  PBE     PBE  Exchange-Correlation functional
    6.00000000000      Z valence
  -29.62042924861      Total energy
  0.0000000  0.0000000 Suggested cutoff for wfc and rho
    1                  Max angular momentum component
  729                  Number of points in mesh
    2    4             Number of Wavefunctions, Number of Projectors
 Wavefunctions         nl  l   occ
                       2S  0  2.00
                       2P  1  3.00
</PP_HEADER>


<PP_MESH>
  <PP_R>
  0.00000000000E+00  6.05297272571E-06  1.22094125726E-05  1.84710881666E-05
  2.48397983660E-05  3.13173727780E-05  3.79056722844E-05  4.46065895761E-05
  5.14220496971E-05  5.83540105970E-05  6.54044636943E-05  7.25754344475E-05
  7.98689829378E-05  8.72872044606E-05  9.48322301273E-05  1.02506227478E-04
  1.10311401103E-04  1.18249993279E-04  1.26324284608E-04  1.34536594679E-04
  1.42889282730E-04  1.51384748326E-04  1.60025432050E-04  1.68813816203E-04
  1.77752425517E-04  1.86843827884E-04  1.96090635085E-04  2.05495503551E-04
  2.15061135118E-04  2.24790277806E-04  2.34685726610E-04  2.44750324302E-04
  2.54986962245E-04  2.65398581227E-04  2.75988172305E-04  2.86758777663E-04
  2.97713491488E-04  3.08855460858E-04  3.20187886644E-04  3.31714024434E-04
  3.43437185462E-04  3.55360737568E-04  3.67488106156E-04  3.79822775185E-04
  3.92368288167E-04  4.05128249184E-04  4.18106323927E-04  4.31306240746E-04
  4.44731791720E-04  4.58386833752E-04  4.72275289670E-04  4.86401149358E-04
  5.00768470904E-04  5.15381381761E-04  5.30244079934E-04  5.45360835191E-04
  5.60735990281E-04  5.76373962190E-04  5.92279243404E-04  6.08456403203E-04
  6.24910088971E-04  6.41645027535E-04  6.58666026518E-04  6.75977975724E-04
  6.93585848540E-04  7.11494703369E-04  7.29709685077E-04  7.48236026476E-04
  7.67079049826E-04  7.86244168363E-04  8.05736887854E-04  8.25562808180E-04
  8.45727624945E-04  8.66237131110E-04  8.87097218660E-04  9.08313880294E-04
  9.29893211148E-04  9.51841410547E-04  9.74164783783E-04  9.96869743930E-04
  1.01996281368E-03  1.04345062723E-03  1.06733993218E-03  1.09163759145E-03
  1.11635058530E-03  1.14148601329E-03  1.16705109634E-03  1.19305317880E-03
  1.21949973058E-03  1.24639834925E-03  1.27375676226E-03  1.30158282917E-03
  1.32988454385E-03  1.35867003685E-03  1.38794757768E-03  1.41772557720E-03
  1.44801259007E-03  1.47881731716E-03  1.51014860807E-03  1.54201546366E-03
  1.57442703868E-03  1.60739264434E-03  1.64092175102E-03  1.67502399099E-03
  1.70970916116E-03  1.74498722590E-03  1.78086831992E-03  1.81736275117E-03
  1.85448100379E-03  1.89223374114E-03  1.93063180885E-03  1.96968623793E-03
  2.00940824797E-03  2.04980925034E-03  2.09090085146E-03  2.13269485615E-03
  2.17520327102E-03  2.21843830792E-03  2.26241238744E-03  2.30713814247E-03
  2.35262842187E-03  2.39889629411E-03  2.44595505105E-03  2.49381821177E-03
  2.54249952642E-03  2.59201298020E-03  2.64237279737E-03  2.69359344534E-03
  2.74568963880E-03  2.79867634397E-03  2.85256878293E-03  2.90738243792E-03
  2.96313305584E-03  3.01983665276E-03  3.07750951854E-03  3.13616822147E-03
  3.19582961307E-03  3.25651083288E-03  3.31822931347E-03  3.38100278534E-03
  3.44484928211E-03  3.50978714563E-03  3.57583503131E-03  3.64301191341E-03
  3.71133709056E-03  3.78083019125E-03  3.85151117952E-03  3.92340036064E-03
  3.99651838698E-03  4.07088626394E-03  4.14652535596E-03  4.22345739270E-03
  4.30170447524E-03  4.38128908245E-03  4.46223407745E-03  4.54456271418E-03
  4.62829864405E-03  4.71346592278E-03  4.80008901728E-03  4.88819281269E-03
  4.97780261952E-03  5.06894418093E-03  5.16164368015E-03  5.25592774792E-03
  5.35182347026E-03  5.44935839613E-03  5.54856054544E-03  5.64945841704E-03
  5.75208099694E-03  5.85645776663E-03  5.96261871153E-03  6.07059432961E-03
  6.18041564020E-03  6.29211419282E-03  6.40572207632E-03  6.52127192802E-03
  6.63879694318E-03  6.75833088446E-03  6.87990809163E-03  7.00356349149E-03
  7.12933260784E-03  7.25725157170E-03  7.38735713173E-03  7.51968666472E-03
  7.65427818641E-03  7.79117036231E-03  7.93040251892E-03  8.07201465493E-03
  8.21604745277E-03  8.36254229027E-03  8.51154125257E-03  8.66308714419E-03
  8.81722350132E-03  8.97399460437E-03  9.13344549062E-03  9.29562196725E-03
  9.46057062441E-03  9.62833884866E-03  9.79897483656E-03  9.97252760854E-03
  1.01490470229E-02  1.03285837904E-02  1.05111894883E-02  1.06969165758E-02
  1.08858184086E-02  1.10779492546E-02  1.12733643093E-02  1.14721197116E-02
  1.16742725602E-02  1.18798809296E-02  1.20890038870E-02  1.23017015096E-02
  1.25180349013E-02  1.27380662103E-02  1.29618586475E-02  1.31894765040E-02
  1.34209851702E-02  1.36564511539E-02  1.38959420999E-02  1.41395268095E-02
  1.43872752597E-02  1.46392586239E-02  1.48955492921E-02  1.51562208915E-02
  1.54213483082E-02  1.56910077080E-02  1.59652765589E-02  1.62442336530E-02
  1.65279591294E-02  1.68165344968E-02  1.71100426573E-02  1.74085679303E-02
  1.77121960761E-02  1.80210143214E-02  1.83351113836E-02  1.86545774967E-02
  1.89795044371E-02  1.93099855502E-02  1.96461157766E-02  1.99879916801E-02
  2.03357114751E-02  2.06893750547E-02  2.10490840196E-02  2.14149417073E-02
  2.17870532215E-02  2.21655254627E-02  2.25504671588E-02  2.29419888958E-02
  2.33402031506E-02  2.37452243222E-02  2.41571687656E-02  2.45761548243E-02
  2.50023028649E-02  2.54357353116E-02  2.58765766810E-02  2.63249536184E-02
  2.67809949338E-02  2.72448316390E-02  2.77165969853E-02  2.81964265018E-02
  2.86844580343E-02  2.91808317847E-02  2.96856903516E-02  3.01991787711E-02
  3.07214445586E-02  3.12526377508E-02  3.17929109492E-02  3.23424193640E-02
  3.29013208583E-02  3.34697759935E-02  3.40479480760E-02  3.46360032033E-02
  3.52341103123E-02  3.58424412276E-02  3.64611707109E-02  3.70904765113E-02
  3.77305394160E-02  3.83815433028E-02  3.90436751924E-02  3.97171253027E-02
  4.04020871027E-02  4.10987573688E-02  4.18073362407E-02  4.25280272796E-02
  4.32610375260E-02  4.40065775595E-02  4.47648615595E-02  4.55361073661E-02
  4.63205365434E-02  4.71183744428E-02  4.79298502676E-02  4.87551971391E-02
  4.95946521635E-02  5.04484565000E-02  5.13168554300E-02  5.22000984278E-02
  5.30984392320E-02  5.40121359185E-02  5.49414509747E-02  5.58866513748E-02
  5.68480086566E-02  5.78257989995E-02  5.88203033036E-02  5.98318072709E-02
  6.08606014868E-02  6.19069815041E-02  6.29712479274E-02  6.40537064999E-02
  6.51546681911E-02  6.62744492858E-02  6.74133714755E-02  6.85717619506E-02
  6.97499534942E-02  7.09482845779E-02  7.21670994591E-02  7.34067482797E-02
  7.46675871668E-02  7.59499783351E-02  7.72542901906E-02  7.85808974370E-02
  7.99301811829E-02  8.13025290513E-02  8.26983352912E-02  8.41180008908E-02
  8.55619336925E-02  8.70305485103E-02  8.85242672488E-02  9.00435190245E-02
  9.15887402890E-02  9.31603749545E-02  9.47588745212E-02  9.63846982071E-02
  9.80383130799E-02  9.97201941911E-02  1.01430824713E-01  1.03170696076E-01
  1.04940308111E-01  1.06740169195E-01  1.08570796392E-01  1.10432715606E-01
  1.12326461731E-01  1.14252578803E-01  1.16211620158E-01  1.18204148590E-01
  1.20230736516E-01  1.22291966134E-01  1.24388429595E-01  1.26520729174E-01
  1.28689477438E-01  1.30895297426E-01  1.33138822829E-01  1.35420698168E-01
  1.37741578981E-01  1.40102132012E-01  1.42503035403E-01  1.44944978887E-01
  1.47428663987E-01  1.49954804217E-01  1.52524125289E-01  1.55137365319E-01
  1.57795275040E-01  1.60498618018E-01  1.63248170872E-01  1.66044723494E-01
  1.68889079281E-01  1.71782055360E-01  1.74724482827E-01  1.77717206986E-01
  1.80761087588E-01  1.83856999080E-01  1.87005830859E-01  1.90208487522E-01
  1.93465889132E-01  1.96778971476E-01  2.00148686338E-01  2.03576001774E-01
  2.07061902383E-01  2.10607389599E-01  2.14213481970E-01  2.17881215458E-01
  2.21611643731E-01  2.25405838469E-01  2.29264889671E-01  2.33189905967E-01
  2.37182014940E-01  2.41242363443E-01  2.45372117938E-01  2.49572464822E-01
  2.53844610774E-01  2.58189783099E-01  2.62609230081E-01  2.67104221341E-01
  2.71676048203E-01  2.76326024065E-01  2.81055484775E-01  2.85865789015E-01
  2.90758318693E-01  2.95734479337E-01  3.00795700503E-01  3.05943436182E-01
  3.11179165217E-01  3.16504391733E-01  3.21920645565E-01  3.27429482697E-01
  3.33032485711E-01  3.38731264242E-01  3.44527455439E-01  3.50422724436E-01
  3.56418764828E-01  3.62517299163E-01  3.68720079430E-01  3.75028887570E-01
  3.81445535981E-01  3.87971868040E-01  3.94609758638E-01  4.01361114712E-01
  4.08227875796E-01  4.15212014577E-01  4.22315537464E-01  4.29540485160E-01
  4.36888933254E-01  4.44362992813E-01  4.51964810988E-01  4.59696571637E-01
  4.67560495943E-01  4.75558843060E-01  4.83693910758E-01  4.91968036086E-01
  5.00383596038E-01  5.08943008243E-01  5.17648731654E-01  5.26503267257E-01
  5.35509158788E-01  5.44668993466E-01  5.53985402735E-01  5.63461063018E-01
  5.73098696489E-01  5.82901071854E-01  5.92871005145E-01  6.03011360532E-01
  6.13325051142E-01  6.23815039900E-01  6.34484340375E-01  6.45336017651E-01
  6.56373189206E-01  6.67599025805E-01  6.79016752413E-01  6.90629649124E-01
  7.02441052096E-01  7.14454354518E-01  7.26673007579E-01  7.39100521462E-01
  7.51740466350E-01  7.64596473456E-01  7.77672236061E-01  7.90971510579E-01
  8.04498117635E-01  8.18255943160E-01  8.32248939512E-01  8.46481126608E-01
  8.60956593079E-01  8.75679497448E-01  8.90654069319E-01  9.05884610598E-01
  9.21375496724E-01  9.37131177929E-01  9.53156180516E-01  9.69455108157E-01
  9.86032643219E-01  1.00289354811E+00  1.02004266663E+00  1.03748492541E+00
  1.05522533525E+00  1.07326899264E+00  1.09162108118E+00  1.11028687305E+00
  1.12927173059E+00  1.14858110777E+00  1.16822055180E+00  1.18819570472E+00
  1.20851230501E+00  1.22917618922E+00  1.25019329369E+00  1.27156965623E+00
  1.29331141786E+00  1.31542482455E+00  1.33791622908E+00  1.36079209277E+00
  1.38405898743E+00  1.40772359718E+00  1.43179272041E+00  1.45627327171E+00
  1.48117228387E+00  1.50649690989E+00  1.53225442505E+00  1.55845222898E+00
  1.58509784781E+00  1.61219893631E+00  1.63976328009E+00  1.66779879786E+00
  1.69631354368E+00  1.72531570929E+00  1.75481362643E+00  1.78481576931E+00
  1.81533075695E+00  1.84636735571E+00  1.87793448181E+00  1.91004120388E+00
  1.94269674555E+00  1.97591048814E+00  2.00969197330E+00  2.04405090580E+00
  2.07899715630E+00  2.11454076419E+00  2.15069194044E+00  2.18746107060E+00
  2.22485871772E+00  2.26289562543E+00  2.30158272099E+00  2.34093111846E+00
  2.38095212187E+00  2.42165722848E+00  2.46305813207E+00  2.50516672634E+00
  2.54799510825E+00  2.59155558158E+00  2.63586066041E+00  2.68092307273E+00
  2.72675576410E+00  2.77337190136E+00  2.82078487643E+00  2.86900831014E+00
  2.91805605615E+00  2.96794220493E+00  3.01868108779E+00  3.07028728105E+00
  3.12277561016E+00  3.17616115400E+00  3.23045924920E+00  3.28568549457E+00
  3.34185575552E+00  3.39898616870E+00  3.45709314655E+00  3.51619338210E+00
  3.57630385369E+00  3.63744182991E+00  3.69962487450E+00  3.76287085145E+00
  3.82719793012E+00  3.89262459042E+00  3.95916962816E+00  4.02685216046E+00
  4.09569163118E+00  4.16570781659E+00  4.23692083097E+00  4.30935113244E+00
  4.38301952884E+00  4.45794718365E+00  4.53415562216E+00  4.61166673756E+00
  4.69050279731E+00  4.77068644947E+00  4.85224072926E+00  4.93518906565E+00
  5.01955528808E+00  5.10536363335E+00  5.19263875252E+00  5.28140571805E+00
  5.37169003097E+00  5.46351762822E+00  5.55691489008E+00  5.65190864780E+00
  5.74852619122E+00  5.84679527671E+00  5.94674413508E+00  6.04840147968E+00
  6.15179651472E+00  6.25695894358E+00  6.36391897739E+00  6.47270734371E+00
  6.58335529533E+00  6.69589461926E+00  6.81035764586E+00  6.92677725817E+00
  7.04518690126E+00  7.16562059195E+00  7.28811292851E+00  7.41269910060E+00
  7.53941489944E+00  7.66829672801E+00  7.79938161157E+00  7.93270720827E+00
  8.06831181997E+00  8.20623440326E+00  8.34651458062E+00  8.48919265184E+00
  8.63430960557E+00  8.78190713109E+00  8.93202763032E+00  9.08471422997E+00
  9.24001079396E+00  9.39796193597E+00  9.55861303231E+00  9.72201023494E+00
  9.88820048471E+00  1.00572315249E+01  1.02291519147E+01  1.04040110438E+01
  1.05818591455E+01  1.07627473124E+01  1.09467275101E+01  1.11338525924E+01
  1.13241763169E+01  1.15177533598E+01  1.17146393322E+01  1.19148907954E+01
  1.21185652780E+01  1.23257212915E+01  1.25364183480E+01  1.27507169767E+01
  1.29686787413E+01  1.31903662581E+01  1.34158432136E+01  1.36451743829E+01
  1.38784256486E+01  1.41156640191E+01  1.43569576485E+01  1.46023758557E+01
  1.48519891446E+01  1.51058692244E+01  1.53640890298E+01  1.56267227424E+01
  1.58938458118E+01  1.61655349773E+01  1.64418682898E+01  1.67229251347E+01
  1.70087862541E+01  1.72995337704E+01  1.75952512098E+01  1.78960235260E+01
  1.82019371252E+01  1.85130798905E+01  1.88295412071E+01  1.91514119882E+01
  1.94787847011E+01  1.98117533937E+01  2.01504137214E+01  2.04948629748E+01
  2.08452001074E+01  2.12015257643E+01  2.15639423111E+01  2.19325538630E+01
  2.23074663149E+01  2.26887873719E+01  2.30766265802E+01  2.34710953585E+01
  2.38723070301E+01  2.42803768552E+01  2.46954220645E+01  2.51175618924E+01
  2.55469176115E+01  2.59836125674E+01  2.64277722141E+01  2.68795241502E+01
  2.73389981550E+01  2.78063262268E+01  2.82816426197E+01  2.87650838831E+01
  2.92567889001E+01  2.97568989281E+01  3.02655576391E+01  3.07829111609E+01
  3.13091081191E+01  3.18442996800E+01  3.23886395937E+01  3.29422842385E+01
  3.35053926658E+01  3.40781266458E+01  3.46606507139E+01  3.52531322179E+01
  3.58557413664E+01  3.64686512773E+01  3.70920380277E+01  3.77260807046E+01
  3.83709614562E+01  3.90268655442E+01  3.96939813973E+01  4.03725006648E+01
  4.10626182722E+01  4.17645324770E+01  4.24784449255E+01  4.32045607110E+01
  4.39430884324E+01  4.46942402546E+01  4.54582319688E+01  4.62352830552E+01
  4.70256167454E+01  4.78294600871E+01  4.86470440088E+01  4.94786033866E+01
  5.03243771115E+01  5.11846081578E+01  5.20595436533E+01  5.29494349500E+01
  5.38545376965E+01  5.47751119112E+01  5.57114220575E+01  5.66637371189E+01
  5.76323306772E+01  5.86174809907E+01  5.96194710738E+01  6.06385887791E+01
  6.16751268792E+01  6.27293831515E+01  6.38016604635E+01  6.48922668596E+01
  6.60015156500E+01  6.71297255004E+01  6.82772205237E+01  6.94443303729E+01
  7.06313903361E+01  7.18387414328E+01  7.30667305114E+01  7.43157103495E+01
  7.55860397549E+01  7.68780836686E+01  7.81922132698E+01  7.95288060825E+01
  8.08882460840E+01
  </PP_R>
  <PP_RAB>
  6.00182125101E-06  6.10441400907E-06  6.20876044715E-06  6.31489054197E-06
  6.42283478263E-06  6.53262417945E-06  6.64429027278E-06  6.75786514213E-06
  6.87338141537E-06  6.99087227808E-06  7.11037148311E-06  7.23191336029E-06
  7.35553282623E-06  7.48126539441E-06  7.60914718537E-06  7.73921493707E-06
  7.87150601547E-06  8.00605842522E-06  8.14291082064E-06  8.28210251676E-06
  8.42367350067E-06  8.56766444297E-06  8.71411670948E-06  8.86307237309E-06
  9.01457422588E-06  9.16866579141E-06  9.32539133720E-06  9.48479588747E-06
  9.64692523605E-06  9.81182595958E-06  9.97954543084E-06  1.01501318324E-05
  1.03236341704E-05  1.05001022887E-05  1.06795868833E-05  1.08621395165E-05
  1.10478126322E-05  1.12366595706E-05  1.14287345840E-05  1.16240928516E-05
  1.18227904961E-05  1.20248845996E-05  1.22304332198E-05  1.24394954067E-05
  1.26521312199E-05  1.28684017457E-05  1.30883691142E-05  1.33120965179E-05
  1.35396482293E-05  1.37710896197E-05  1.40064871776E-05  1.42459085283E-05
  1.44894224528E-05  1.47370989080E-05  1.49890090465E-05  1.52452252373E-05
  1.55058210863E-05  1.57708714576E-05  1.60404524951E-05  1.63146416443E-05
  1.65935176742E-05  1.68771607008E-05  1.71656522089E-05  1.74590750768E-05
  1.77575135991E-05  1.80610535115E-05  1.83697820150E-05  1.86837878015E-05
  1.90031610786E-05  1.93279935961E-05  1.96583786723E-05  1.99944112202E-05
  2.03361877755E-05  2.06838065241E-05  2.10373673300E-05  2.13969717645E-05
  2.17627231349E-05  2.21347265145E-05  2.25130887727E-05  2.28979186057E-05
  2.32893265677E-05  2.36874251024E-05  2.40923285761E-05  2.45041533095E-05
  2.49230176120E-05  2.53490418152E-05  2.57823483075E-05  2.62230615697E-05
  2.66713082099E-05  2.71272170009E-05  2.75909189165E-05  2.80625471691E-05
  2.85422372485E-05  2.90301269603E-05  2.95263564658E-05  3.00310683222E-05
  3.05444075234E-05  3.10665215419E-05  3.15975603708E-05  3.21376765673E-05
  3.26870252965E-05  3.32457643754E-05  3.38140543192E-05  3.43920583864E-05
  3.49799426265E-05  3.55778759273E-05  3.61860300633E-05  3.68045797455E-05
  3.74337026713E-05  3.80735795754E-05  3.87243942823E-05  3.93863337582E-05
  4.00595881657E-05  4.07443509177E-05  4.14408187333E-05  4.21491916942E-05
  4.28696733022E-05  4.36024705378E-05  4.43477939195E-05  4.51058575641E-05
  4.58768792488E-05  4.66610804732E-05  4.74586865231E-05  4.82699265352E-05
  4.90950335631E-05  4.99342446442E-05  5.07878008675E-05  5.16559474432E-05
  5.25389337730E-05  5.34370135218E-05  5.43504446905E-05  5.52794896903E-05
  5.62244154177E-05  5.71854933317E-05  5.81629995314E-05  5.91572148353E-05
  6.01684248623E-05  6.11969201135E-05  6.22429960555E-05  6.33069532059E-05
  6.43890972190E-05  6.54897389736E-05  6.66091946630E-05  6.77477858851E-05
  6.89058397350E-05  7.00836888994E-05  7.12816717514E-05  7.25001324483E-05
  7.37394210303E-05  7.49998935211E-05  7.62819120300E-05  7.75858448561E-05
  7.89120665940E-05  8.02609582417E-05  8.16329073096E-05  8.30283079320E-05
  8.44475609807E-05  8.58910741795E-05  8.73592622218E-05  8.88525468898E-05
  9.03713571750E-05  9.19161294024E-05  9.34873073552E-05  9.50853424023E-05
  9.67106936282E-05  9.83638279650E-05  1.00045220326E-04  1.01755353743E-04
  1.03494719504E-04  1.05263817296E-04  1.07063155345E-04  1.08893250566E-04
  1.10754628712E-04  1.12647824519E-04  1.14573381867E-04  1.16531853929E-04
  1.18523803339E-04  1.20549802343E-04  1.22610432974E-04  1.24706287209E-04
  1.26837967147E-04  1.29006085178E-04  1.31211264162E-04  1.33454137602E-04
  1.35735349834E-04  1.38055556205E-04  1.40415423267E-04  1.42815628962E-04
  1.45256862823E-04  1.47739826171E-04  1.50265232312E-04  1.52833806746E-04
  1.55446287375E-04  1.58103424715E-04  1.60805982109E-04  1.63554735950E-04
  1.66350475902E-04  1.69194005127E-04  1.72086140515E-04  1.75027712921E-04
  1.78019567402E-04  1.81062563461E-04  1.84157575290E-04  1.87305492026E-04
  1.90507218007E-04  1.93763673024E-04  1.97075792595E-04  2.00444528228E-04
  2.03870847695E-04  2.07355735311E-04  2.10900192218E-04  2.14505236669E-04
  2.18171904323E-04  2.21901248544E-04  2.25694340699E-04  2.29552270471E-04
  2.33476146169E-04  2.37467095045E-04  2.41526263623E-04  2.45654818022E-04
  2.49853944297E-04  2.54124848775E-04  2.58468758405E-04  2.62886921107E-04
  2.67380606135E-04  2.71951104437E-04  2.76599729029E-04  2.81327815370E-04
  2.86136721749E-04  2.91027829671E-04  2.96002544257E-04  3.01062294646E-04
  3.06208534406E-04  3.11442741953E-04  3.16766420973E-04  3.22181100856E-04
  3.27688337135E-04  3.33289711932E-04  3.38986834414E-04  3.44781341253E-04
  3.50674897100E-04  3.56669195060E-04  3.62765957177E-04  3.68966934934E-04
  3.75273909751E-04  3.81688693501E-04  3.88213129026E-04  3.94849090672E-04
  4.01598484820E-04  4.08463250442E-04  4.15445359651E-04  4.22546818273E-04
  4.29769666419E-04  4.37115979075E-04  4.44587866692E-04  4.52187475800E-04
  4.59916989620E-04  4.67778628691E-04  4.75774651510E-04  4.83907355180E-04
  4.92179076069E-04  5.00592190483E-04  5.09149115346E-04  5.17852308898E-04
  5.26704271396E-04  5.35707545840E-04  5.44864718696E-04  5.54178420641E-04
  5.63651327323E-04  5.73286160124E-04  5.83085686946E-04  5.93052723002E-04
  6.03190131629E-04  6.13500825109E-04  6.23987765504E-04  6.34653965510E-04
  6.45502489318E-04  6.56536453501E-04  6.67759027903E-04  6.79173436551E-04
  6.90782958585E-04  7.02590929196E-04  7.14600740585E-04  7.26815842939E-04
  7.39239745420E-04  7.51876017175E-04  7.64728288360E-04  7.77800251185E-04
  7.91095660970E-04  8.04618337231E-04  8.18372164769E-04  8.32361094795E-04
  8.46589146056E-04  8.61060405996E-04  8.75779031929E-04  8.90749252231E-04
  9.05975367556E-04  9.21461752073E-04  9.37212854720E-04  9.53233200485E-04
  9.69527391702E-04  9.86100109377E-04  1.00295611453E-03  1.02010024957E-03
  1.03753743967E-03  1.05527269420E-03  1.07331110816E-03  1.09165786362E-03
  1.11031823127E-03  1.12929757186E-03  1.14860133779E-03  1.16823507465E-03
  1.18820442285E-03  1.20851511918E-03  1.22917299852E-03  1.25018399548E-03
  1.27155414611E-03  1.29328958964E-03  1.31539657024E-03  1.33788143883E-03
  1.36075065486E-03  1.38401078822E-03  1.40766852110E-03  1.43173064991E-03
  1.45620408723E-03  1.48109586380E-03  1.50641313055E-03  1.53216316065E-03
  1.55835335157E-03  1.58499122726E-03  1.61208444025E-03  1.63964077391E-03
  1.66766814464E-03  1.69617460415E-03  1.72516834180E-03  1.75465768694E-03
  1.78465111127E-03  1.81515723134E-03  1.84618481095E-03  1.87774276373E-03
  1.90984015567E-03  1.94248620774E-03  1.97569029850E-03  2.00946196685E-03
  2.04381091474E-03  2.07874700996E-03  2.11428028897E-03  2.15042095979E-03
  2.18717940494E-03  2.22456618441E-03  2.26259203870E-03  2.30126789189E-03
  2.34060485483E-03  2.38061422824E-03  2.42130750605E-03  2.46269637866E-03
  2.50479273628E-03  2.54760867238E-03  2.59115648716E-03  2.63544869106E-03
  2.68049800836E-03  2.72631738088E-03  2.77291997162E-03  2.82031916861E-03
  2.86852858872E-03  2.91756208158E-03  2.96743373358E-03  3.01815787186E-03
  3.06974906850E-03  3.12222214465E-03  3.17559217479E-03  3.22987449112E-03
  3.28508468789E-03  3.34123862592E-03  3.39835243715E-03  3.45644252928E-03
  3.51552559046E-03  3.57561859411E-03  3.63673880380E-03  3.69890377817E-03
  3.76213137601E-03  3.82643976141E-03  3.89184740890E-03  3.95837310884E-03
  4.02603597277E-03  4.09485543894E-03  4.16485127783E-03  4.23604359790E-03
  4.30845285133E-03  4.38209983988E-03  4.45700572093E-03  4.53319201347E-03
  4.61068060436E-03  4.68949375456E-03  4.76965410557E-03  4.85118468591E-03
  4.93410891774E-03  5.01845062358E-03  5.10423403317E-03  5.19148379043E-03
  5.28022496052E-03  5.37048303707E-03  5.46228394947E-03  5.55565407035E-03
  5.65062022313E-03  5.74720968977E-03  5.84545021853E-03  5.94537003203E-03
  6.04699783528E-03  6.15036282401E-03  6.25549469295E-03  6.36242364448E-03
  6.47118039719E-03  6.58179619482E-03  6.69430281512E-03  6.80873257909E-03
  6.92511836017E-03  7.04349359375E-03  7.16389228673E-03  7.28634902735E-03
  7.41089899505E-03  7.53757797062E-03  7.66642234648E-03  7.79746913713E-03
  7.93075598977E-03  8.06632119515E-03  8.20420369851E-03  8.34444311084E-03
  8.48707972020E-03  8.63215450333E-03  8.77970913742E-03  8.92978601204E-03
  9.08242824139E-03  9.23767967661E-03  9.39558491845E-03  9.55618933003E-03
  9.71953904988E-03  9.88568100521E-03  1.00546629254E-02  1.02265333557E-02
  1.04013416711E-02  1.05791380907E-02  1.07599736920E-02  1.09439004255E-02
  1.11309711298E-02  1.13212395468E-02  1.15147603367E-02  1.17115890945E-02
  1.19117823653E-02  1.21153976605E-02  1.23224934751E-02  1.25331293037E-02
  1.27473656577E-02  1.29652640832E-02  1.31868871782E-02  1.34122986107E-02
  1.36415631371E-02  1.38747466206E-02  1.41119160503E-02  1.43531395604E-02
  1.45984864497E-02  1.48480272017E-02  1.51018335046E-02  1.53599782721E-02
  1.56225356640E-02  1.58895811082E-02  1.61611913215E-02  1.64374443324E-02
  1.67184195029E-02  1.70041975519E-02  1.72948605777E-02  1.75904920824E-02
  1.78911769950E-02  1.81970016965E-02  1.85080540446E-02  1.88244233984E-02
  1.91462006447E-02  1.94734782241E-02  1.98063501569E-02  2.01449120708E-02
  2.04892612281E-02  2.08394965537E-02  2.11957186634E-02  2.15580298929E-02
  2.19265343273E-02  2.23013378306E-02  2.26825480768E-02  2.30702745801E-02
  2.34646287269E-02  2.38657238074E-02  2.42736750486E-02  2.46885996468E-02
  2.51106168021E-02  2.55398477516E-02  2.59764158051E-02  2.64204463803E-02
  2.68720670384E-02  2.73314075214E-02  2.77985997889E-02  2.82737780562E-02
  2.87570788328E-02  2.92486409617E-02  2.97486056591E-02  3.02571165553E-02
  3.07743197356E-02  3.13003637824E-02  3.18353998180E-02  3.23795815480E-02
  3.29330653052E-02  3.34960100948E-02  3.40685776398E-02  3.46509324280E-02
  3.52432417586E-02  3.58456757905E-02  3.64584075914E-02  3.70816131873E-02
  3.77154716132E-02  3.83601649642E-02  3.90158784483E-02  3.96828004393E-02
  4.03611225309E-02  4.10510395921E-02  4.17527498225E-02  4.24664548100E-02
  4.31923595882E-02  4.39306726955E-02  4.46816062350E-02  4.54453759354E-02
  4.62222012128E-02  4.70123052342E-02  4.78159149812E-02  4.86332613152E-02
  4.94645790442E-02  5.03101069895E-02  5.11700880550E-02  5.20447692966E-02
  5.29344019934E-02  5.38392417195E-02  5.47595484179E-02  5.56955864749E-02
  5.66476247962E-02  5.76159368839E-02  5.86008009154E-02  5.96024998229E-02
  6.06213213754E-02  6.16575582603E-02  6.27115081687E-02  6.37834738798E-02
  6.48737633487E-02  6.59826897944E-02  6.71105717901E-02  6.82577333544E-02
  6.94245040447E-02  7.06112190516E-02  7.18182192953E-02  7.30458515237E-02
  7.42944684117E-02  7.55644286628E-02  7.68560971121E-02  7.81698448308E-02
  7.95060492333E-02  8.08650941852E-02  8.22473701139E-02  8.36532741204E-02
  8.50832100939E-02  8.65375888271E-02  8.80168281351E-02  8.95213529746E-02
  9.10515955665E-02  9.26079955198E-02  9.41909999583E-02  9.58010636483E-02
  9.74386491301E-02  9.91042268503E-02  1.00798275297E-01  1.02521281138E-01
  1.04273739359E-01  1.06056153407E-01  1.07869035336E-01  1.09712905952E-01
  1.11588294962E-01  1.13495741131E-01  1.15435792429E-01  1.17409006197E-01
  1.19415949300E-01  1.21457198295E-01  1.23533339593E-01  1.25644969628E-01
  1.27792695032E-01  1.29977132804E-01  1.32198910492E-01  1.34458666368E-01
  1.36757049617E-01  1.39094720521E-01  1.41472350645E-01  1.43890623039E-01
  1.46350232424E-01  1.48851885399E-01  1.51396300640E-01  1.53984209109E-01
  1.56616354261E-01  1.59293492261E-01  1.62016392199E-01  1.64785836312E-01
  1.67602620206E-01  1.70467553090E-01  1.73381458003E-01  1.76345172054E-01
  1.79359546661E-01  1.82425447795E-01  1.85543756229E-01  1.88715367795E-01
  1.91941193633E-01  1.95222160463E-01  1.98559210841E-01  2.01953303438E-01
  2.05405413312E-01  2.08916532186E-01  2.12487668737E-01  2.16119848883E-01
  2.19814116080E-01  2.23571531619E-01  2.27393174933E-01  2.31280143905E-01
  2.35233555187E-01  2.39254544518E-01  2.43344267050E-01  2.47503897681E-01
  2.51734631392E-01  2.56037683591E-01  2.60414290462E-01  2.64865709320E-01
  2.69393218971E-01  2.73998120080E-01  2.78681735547E-01  2.83445410885E-01
  2.88290514603E-01  2.93218438608E-01  2.98230598597E-01  3.03328434465E-01
  3.08513410723E-01  3.13787016914E-01  3.19150768043E-01  3.24606205011E-01
  3.30154895061E-01  3.35798432223E-01  3.41538437777E-01  3.47376560716E-01
  3.53314478217E-01  3.59353896132E-01  3.65496549467E-01  3.71744202889E-01
  3.78098651226E-01  3.84561719989E-01  3.91135265892E-01  3.97821177389E-01
  4.04621375212E-01  4.11537812926E-01  4.18572477490E-01  4.25727389828E-01
  4.33004605406E-01  4.40406214828E-01  4.47934344434E-01  4.55591156909E-01
  4.63378851907E-01  4.71299666682E-01  4.79355876732E-01  4.87549796449E-01
  4.95883779788E-01  5.04360220942E-01  5.12981555027E-01  5.21750258786E-01
  5.30668851298E-01  5.39739894702E-01  5.48965994934E-01  5.58349802473E-01
  5.67894013106E-01  5.77601368699E-01  5.87474657989E-01  5.97516717380E-01
  6.07730431761E-01  6.18118735335E-01  6.28684612461E-01  6.39431098510E-01
  6.50361280740E-01  6.61478299181E-01  6.72785347538E-01  6.84285674106E-01
  6.95982582706E-01  7.07879433635E-01  7.19979644627E-01  7.32286691838E-01
  7.44804110846E-01  7.57535497662E-01  7.70484509768E-01  7.83654867164E-01
  7.97050353438E-01  8.10674816856E-01  8.24532171461E-01  8.38626398204E-01
  8.52961546083E-01  8.67541733309E-01  8.82371148487E-01  8.97454051821E-01
  9.12794776338E-01  9.28397729131E-01  9.44267392626E-01  9.60408325870E-01
  9.76825165842E-01  9.93522628782E-01  1.01050551155E+00  1.02777869299E+00
  1.04534713537E+00  1.06321588574E+00  1.08139007747E+00  1.09987493164E+00
  1.11867575860E+00  1.13779795946E+00  1.15724702765E+00  1.17702855051E+00
  1.19714821091E+00  1.21761178882E+00  1.23842516303E+00  1.25959431283E+00
  1.28112531970E+00  1.30302436909E+00  1.32529775216E+00  1.34795186763E+00
  1.37099322358E+00
  </PP_RAB>
</PP_MESH>


<PP_LOCAL>
 -2.94209522838E+01 -2.94209522838E+01 -2.94209522607E+01 -2.94209522511E+01
 -2.94209522445E+01 -2.94209522330E+01 -2.94209522189E+01 -2.94209522018E+01
 -2.94209521816E+01 -2.94209521580E+01 -2.94209521310E+01 -2.94209521004E+01
 -2.94209520660E+01 -2.94209520276E+01 -2.94209519851E+01 -2.94209519382E+01
 -2.94209518868E+01 -2.94209518306E+01 -2.94209517695E+01 -2.94209517032E+01
 -2.94209516315E+01 -2.94209515541E+01 -2.94209514708E+01 -2.94209513814E+01
 -2.94209512855E+01 -2.94209511829E+01 -2.94209510733E+01 -2.94209509564E+01