<PP_INFO>
Generated using ld1 code                                                    
Author: Brandon Wood    Generation date: Mar. 20 2006                        
Info: automatically converted from PWSCF format                                 
    0        The Pseudo was generated with a Non-Relativistic Calculation
nl pn  l   occ               Rcut            Rcut US             E pseu
3S  0  0  0.50      2.64000000000      0.00000000000     -0.36180000000
3P  0  1  0.05      3.90000000000      0.00000000000     -0.18150000000
</PP_INFO>


<PP_HEADER>
   0                   Version Number
  Na                   Element
   NC                  Norm - Conserving pseudopotential
    T                  Nonlinear Core Correction
SLA  PW   PBE  PBE     PBE  Exchange-Correlation functional
    1.00000000000      Z valence
    0.00000000000      Total energy
  25.000000  150.00000 Suggested cutoff for wfc and rho
    1                  Max angular momentum component
  485                  Number of points in mesh
    2    1             Number of Wavefunctions, Number of Projectors
 Wavefunctions         nl  l   occ
                       3S  0  0.50
                       3P  1  0.05
</PP_HEADER>


<PP_MESH>
  <PP_R>
  3.04966025366E-05  3.14253623540E-05  3.23824071188E-05  3.33685982359E-05
  3.43848233439E-05  3.54319971139E-05  3.65110620730E-05  3.76229894526E-05
  3.87687800623E-05  3.99494651911E-05  4.11661075352E-05  4.24198021548E-05
  4.37116774599E-05  4.50428962252E-05  4.64146566377E-05  4.78281933742E-05
  4.92847787132E-05  5.07857236800E-05  5.23323792261E-05  5.39261374461E-05
  5.55684328300E-05  5.72607435543E-05  5.90045928131E-05  6.08015501883E-05
  6.26532330630E-05  6.45613080766E-05  6.65274926255E-05  6.85535564085E-05
  7.06413230198E-05  7.27926715902E-05  7.50095384787E-05  7.72939190152E-05
  7.96478692962E-05  8.20735080360E-05  8.45730184732E-05  8.71486503358E-05
  8.98027218665E-05  9.25376219087E-05  9.53558120571E-05  9.82598288730E-05
  1.01252286168E-04  1.04335877355E-04  1.07513377874E-04  1.10787647691E-04
  1.14161633869E-04  1.17638373224E-04  1.21220995056E-04  1.24912723966E-04
  1.28716882759E-04  1.32636895435E-04  1.36676290271E-04  1.40838702993E-04
  1.45127880056E-04  1.49547682006E-04  1.54102086966E-04  1.58795194206E-04
  1.63631227839E-04  1.68614540623E-04  1.73749617876E-04  1.79041081513E-04
  1.84493694209E-04  1.90112363683E-04  1.95902147118E-04  2.01868255709E-04
  2.08016059357E-04  2.14351091499E-04  2.20879054093E-04  2.27605822746E-04
  2.34537452002E-04  2.41680180798E-04  2.49040438070E-04  2.56624848547E-04
  2.64440238710E-04  2.72493642939E-04  2.80792309840E-04  2.89343708774E-04
  2.98155536577E-04  3.07235724489E-04  3.16592445292E-04  3.26234120667E-04
  3.36169428771E-04  3.46407312054E-04  3.56956985301E-04  3.67827943929E-04
  3.79029972537E-04  3.90573153705E-04  4.02467877076E-04  4.14724848703E-04
  4.27355100689E-04  4.40370001114E-04  4.53781264265E-04  4.67600961185E-04
  4.81841530534E-04  4.96515789786E-04  5.11636946764E-04  5.27218611531E-04
  5.43274808637E-04  5.59819989743E-04  5.76869046628E-04  5.94437324595E-04
  6.12540636280E-04  6.31195275886E-04  6.50418033847E-04  6.70226211943E-04
  6.90637638871E-04  7.11670686293E-04  7.33344285373E-04  7.55677943811E-04
  7.78691763409E-04  8.02406458157E-04  8.26843372881E-04  8.52024502455E-04
  8.77972511594E-04  9.04710755259E-04  9.32263299673E-04  9.60654943987E-04
  9.89911242596E-04  1.02005852814E-03  1.05112393522E-03  1.08313542480E-03
  1.11612180937E-03  1.15011277891E-03  1.18513892759E-03  1.22123178130E-03
  1.25842382604E-03  1.29674853718E-03  1.33624040954E-03  1.37693498846E-03
  1.41886890182E-03  1.46207989296E-03  1.50660685471E-03  1.55248986432E-03
  1.59977021960E-03  1.64849047607E-03  1.69869448525E-03  1.75042743413E-03
  1.80373588585E-03  1.85866782163E-03  1.91527268391E-03  1.97360142090E-03
  2.03370653238E-03  2.09564211702E-03  2.15946392103E-03  2.22522938833E-03
  2.29299771229E-03  2.36282988898E-03  2.43478877206E-03  2.50893912939E-03
  2.58534770129E-03  2.66408326064E-03  2.74521667476E-03  2.82882096919E-03
  2.91497139344E-03  3.00374548872E-03  3.09522315769E-03  3.18948673644E-03
  3.28662106855E-03  3.38671358147E-03  3.48985436523E-03  3.59613625349E-03
  3.70565490712E-03  3.81850890031E-03  3.93479980927E-03  4.05463230366E-03
  4.17811424082E-03  4.30535676283E-03  4.43647439655E-03  4.57158515669E-03
  4.71081065207E-03  4.85427619502E-03  5.00211091422E-03  5.15444787090E-03
  5.31142417859E-03  5.47318112658E-03  5.63986430703E-03  5.81162374606E-03
  5.98861403876E-03  6.17099448834E-03  6.35892924951E-03  6.55258747625E-03
  6.75214347403E-03  6.95777685672E-03  7.16967270824E-03  7.38802174917E-03
  7.61302050838E-03  7.84487149994E-03  8.08378340540E-03  8.32997126159E-03
  8.58365665421E-03  8.84506791723E-03  9.11444033844E-03  9.39201637119E-03
  9.67804585266E-03  9.97278622868E-03  1.02765027855E-02  1.05894688885E-02
  1.09119662283E-02  1.12442850743E-02  1.15867245359E-02  1.19395928317E-02
  1.23032075670E-02  1.26778960196E-02  1.30639954343E-02  1.34618533269E-02
  1.38718277961E-02  1.42942878467E-02  1.47296137213E-02  1.51781972425E-02
  1.56404421657E-02  1.61167645427E-02  1.66075930957E-02  1.71133696035E-02
  1.76345492992E-02  1.81716012796E-02  1.87250089277E-02  1.92952703479E-02
  1.98828988138E-02  2.04884232309E-02  2.11123886118E-02  2.17553565676E-02
  2.24179058129E-02  2.31006326866E-02  2.38041516891E-02  2.45290960350E-02
  2.52761182230E-02  2.60458906237E-02  2.68391060840E-02  2.76564785515E-02
  2.84987437166E-02  2.93666596748E-02  3.02610076089E-02  3.11825924926E-02
  3.21322438144E-02  3.31108163247E-02  3.41191908047E-02  3.51582748595E-02
  3.62290037350E-02  3.73323411593E-02  3.84692802107E-02  3.96408442110E-02
  4.08480876470E-02  4.20920971192E-02  4.33739923201E-02  4.46949270419E-02
  4.60560902151E-02  4.74587069783E-02  4.89040397813E-02  5.03933895213E-02
  5.19280967135E-02  5.35095426980E-02  5.51391508830E-02  5.68183880257E-02
  5.85487655530E-02  6.03318409215E-02  6.21692190193E-02  6.40625536108E-02
  6.60135488249E-02  6.80239606890E-02  7.00955987094E-02  7.22303275003E-02
  7.44300684616E-02  7.66968015088E-02  7.90325668544E-02  8.14394668451E-02
  8.39196678533E-02  8.64754022273E-02  8.91089703006E-02  9.18227424622E-02
  9.46191612902E-02  9.75007437504E-02  1.00470083461E-01  1.03529853030E-01
  1.06682806454E-01  1.09931781605E-01  1.13279702781E-01  1.16729583335E-01
  1.20284528394E-01  1.23947737648E-01  1.27722508233E-01  1.31612237697E-01
  1.35620427058E-01  1.39750683959E-01  1.44006725909E-01  1.48392383632E-01
  1.52911604518E-01  1.57568456170E-01  1.62367130068E-01  1.67311945344E-01
  1.72407352664E-01  1.77657938240E-01  1.83068427952E-01  1.88643691607E-01
  1.94388747318E-01  2.00308766023E-01  2.06409076139E-01  2.12695168357E-01
  2.19172700583E-01  2.25847503035E-01  2.32725583484E-01  2.39813132669E-01
  2.47116529860E-01  2.54642348609E-01  2.62397362661E-01  2.70388552051E-01
  2.78623109390E-01  2.87108446335E-01  2.95852200263E-01  3.04862241141E-01
  3.14146678615E-01  3.23713869305E-01  3.33572424329E-01  3.43731217052E-01
  3.54199391072E-01  3.64986368454E-01  3.76101858205E-01  3.87555865015E-01
  3.99358698265E-01  4.11520981301E-01  4.24053660999E-01  4.36968017616E-01
  4.50275674945E-01  4.63988610776E-01  4.78119167677E-01  4.92680064103E-01
  5.07684405843E-01  5.23145697819E-01  5.39077856236E-01  5.55495221112E-01
  5.72412569184E-01  5.89845127208E-01  6.07808585662E-01  6.26319112871E-01
  6.45393369560E-01  6.65048523846E-01  6.85302266697E-01  7.06172827846E-01
  7.27678992209E-01  7.49840116784E-01  7.72676148081E-01  7.96207640067E-01
  8.20455772676E-01  8.45442370862E-01  8.71189924251E-01  8.97721607379E-01
  9.25061300552E-01  9.53233611339E-01  9.82263896721E-01  1.01217828592E+00
  1.04300370389E+00  1.07476789560E+00  1.10749945097E+00  1.14122783061E+00
  1.17598339232E+00  1.21179741847E+00  1.24870214410E+00  1.28673078594E+00
  1.32591757235E+00  1.36629777408E+00  1.40790773603E+00  1.45078490998E+00
  1.49496788828E+00  1.54049643859E+00  1.58741153969E+00  1.63575541832E+00
  1.68557158725E+00  1.73690488438E+00  1.78980151316E+00  1.84430908411E+00
  1.90047665774E+00  1.95835478864E+00  2.01799557104E+00  2.07945268568E+00
  2.14278144810E+00  2.20803885846E+00  2.27528365285E+00  2.34457635611E+00
  2.41597933635E+00  2.48955686108E+00  2.56537515504E+00  2.64350245980E+00
  2.72400909522E+00  2.80696752270E+00  2.89245241042E+00  2.98054070057E+00
  3.07131167853E+00  3.16484704433E+00  3.26123098610E+00  3.36055025589E+00
  3.46289424776E+00  3.56835507821E+00  3.67702766910E+00  3.78900983309E+00
  3.90440236171E+00  4.02330911600E+00  4.14583712008E+00  4.27209665742E+00
  4.40220137012E+00  4.53626836122E+00  4.67441830005E+00  4.81677553088E+00
  4.96346818483E+00  5.11462829519E+00  5.27039191627E+00  5.43089924583E+00
  5.59629475131E+00  5.76672729983E+00  5.94235029218E+00  6.12332180092E+00
  6.30980471261E+00  6.50196687447E+00  6.69998124542E+00  6.90402605174E+00
  7.11428494755E+00  7.33094718004E+00  7.55420775985E+00  7.78426763656E+00
  8.02133387960E+00  8.26561986459E+00  8.51734546541E+00  8.77673725208E+00
  9.04402869472E+00  9.31946037368E+00  9.60328019606E+00  9.89574361886E+00
  1.01971138789E+01  1.05076622297E+01  1.08276681859E+01  1.11574197743E+01
  1.14972137936E+01  1.18473560815E+01  1.22081617895E+01  1.25799556673E+01
  1.29630723543E+01  1.33578566814E+01  1.37646639813E+01  1.41838604079E+01
  1.46158232662E+01  1.50609413522E+01  1.55196153019E+01  1.59922579531E+01
  1.64792947159E+01  1.69811639564E+01  1.74983173907E+01  1.80312204918E+01
  1.85803529085E+01  1.91462088970E+01  1.97292977659E+01  2.03301443346E+01
  2.09492894055E+01  2.15872902510E+01  2.22447211149E+01  2.29221737294E+01
  2.36202578475E+01  2.43396017921E+01  2.50808530213E+01  2.58446787113E+01
  2.66317663566E+01  2.74428243893E+01  2.82785828165E+01  2.91397938770E+01
  3.00272327191E+01  3.09416980974E+01  3.18840130927E+01  3.28550258520E+01
  3.38556103524E+01  3.48866671874E+01  3.59491243778E+01  3.70439382067E+01
  3.81720940806E+01  3.93346074159E+01  4.05325245530E+01  4.17669236982E+01
  4.30389158941E+01  4.43496460195E+01  4.57002938200E+01  4.70920749698E+01
  4.85262421660E+01  5.00040862556E+01  5.15269373983E+01  5.30961662628E+01
  5.47131852611E+01  5.63794498193E+01  5.80964596881E+01  5.98657602923E+01
  6.16889441218E+01
  </PP_R>
  <PP_RAB>
  9.14898076098E-07  9.42760870620E-07  9.71472213565E-07  1.00105794708E-06
  1.03154470032E-06  1.06295991342E-06  1.09533186219E-06  1.12868968358E-06
  1.16306340187E-06  1.19848395573E-06  1.23498322605E-06  1.27259406464E-06
  1.31135032380E-06  1.35128688676E-06  1.39243969913E-06  1.43484580123E-06
  1.47854336140E-06  1.52357171040E-06  1.56997137678E-06  1.61778412338E-06
  1.66705298490E-06  1.71782230663E-06  1.77013778439E-06  1.82404650565E-06
  1.87959699189E-06  1.93683924230E-06  1.99582477876E-06  2.05660669226E-06
  2.11923969059E-06  2.18378014771E-06  2.25028615436E-06  2.31881757045E-06
  2.38943607889E-06  2.46220524108E-06  2.53719055420E-06  2.61445951007E-06
  2.69408165599E-06  2.77612865726E-06  2.86067436171E-06  2.94779486619E-06
  3.03756858503E-06  3.13007632064E-06  3.22540133622E-06  3.32362943073E-06
  3.42484901608E-06  3.52915119673E-06  3.63662985167E-06  3.74738171897E-06
  3.86150648276E-06  3.97910686306E-06  4.10028870812E-06  4.22516108980E-06
  4.35383640167E-06  4.48643046019E-06  4.62306260897E-06  4.76385582617E-06
  4.90893683517E-06  5.05843621870E-06  5.21248853627E-06  5.37123244538E-06
  5.53481082626E-06  5.70337091050E-06  5.87706441354E-06  6.05604767127E-06
  6.24048178070E-06  6.43053274497E-06  6.62637162279E-06  6.82817468237E-06
  7.03612356007E-06  7.25040542394E-06  7.47121314210E-06  7.69874545641E-06
  7.93320716131E-06  8.17480928816E-06  8.42376929519E-06  8.68031126321E-06
  8.94466609730E-06  9.21707173466E-06  9.49777335876E-06  9.78702362000E-06
  1.00850828631E-05  1.03922193616E-05  1.07087095590E-05  1.10348383179E-05
  1.13708991761E-05  1.17171946111E-05  1.20740363123E-05  1.24417454611E-05
  1.28206530207E-05  1.32111000334E-05  1.36134379279E-05  1.40280288355E-05
  1.44552459160E-05  1.48954736936E-05  1.53491084029E-05  1.58165583459E-05
  1.62982442591E-05  1.67945996923E-05  1.73060713988E-05  1.78331197379E-05
  1.83762190884E-05  1.89358582766E-05  1.95125410154E-05  2.01067863583E-05
  2.07191291661E-05  2.13501205888E-05  2.20003285612E-05  2.26703383143E-05
  2.33607529023E-05  2.40721937447E-05  2.48053011864E-05  2.55607350737E-05
  2.63391753478E-05  2.71413226578E-05  2.79678989902E-05  2.88196483196E-05
  2.96973372779E-05  3.06017558443E-05  3.15337180567E-05  3.24940627440E-05
  3.34836542811E-05  3.45033833673E-05  3.55541678276E-05  3.66369534389E-05
  3.77527147813E-05  3.89024561155E-05  4.00872122861E-05  4.13080496538E-05
  4.25660670545E-05  4.38623967889E-05  4.51982056412E-05  4.65746959295E-05
  4.79931065881E-05  4.94547142822E-05  5.09608345575E-05  5.25128230238E-05
  5.41120765756E-05  5.57600346489E-05  5.74581805174E-05  5.92080426269E-05
  6.10111959714E-05  6.28692635106E-05  6.47839176308E-05  6.67568816500E-05
  6.87899313688E-05  7.08848966693E-05  7.30436631617E-05  7.52681738816E-05
  7.75604310387E-05  7.99224978192E-05  8.23565002427E-05  8.48646290756E-05
  8.74491418033E-05  9.01123646615E-05  9.28566947307E-05  9.56846020932E-05
  9.85986320565E-05  1.01601407444E-04  1.04695630957E-04  1.07884087605E-04
  1.11169647214E-04  1.14555267009E-04  1.18043994278E-04  1.21638969110E-04
  1.25343427225E-04  1.29160702885E-04  1.33094231896E-04  1.37147554701E-04
  1.41324319562E-04  1.45628285851E-04  1.50063327427E-04  1.54633436127E-04
  1.59342725358E-04  1.64195433797E-04  1.69195929211E-04  1.74348712382E-04
  1.79658421163E-04  1.85129834650E-04  1.90767877485E-04  1.96577624288E-04
  2.02564304221E-04  2.08733305702E-04  2.15090181247E-04  2.21640652475E-04
  2.28390615251E-04  2.35346144998E-04  2.42513502162E-04  2.49899137848E-04
  2.57509699626E-04  2.65352037517E-04  2.73433210153E-04  2.81760491136E-04
  2.90341375580E-04  2.99183586860E-04  3.08295083565E-04  3.17684066655E-04
  3.27358986849E-04  3.37328552229E-04  3.47601736077E-04  3.58187784950E-04
  3.69096227009E-04  3.80336880587E-04  3.91919863030E-04  4.03855599806E-04
  4.16154833882E-04  4.28828635401E-04  4.41888411638E-04  4.55345917274E-04
  4.69213264972E-04  4.83502936281E-04  4.98227792871E-04  5.13401088106E-04
  5.29036478975E-04  5.45148038387E-04  5.61750267832E-04  5.78858110437E-04
  5.96486964415E-04  6.14652696926E-04  6.33371658354E-04  6.52660697028E-04
  6.72537174386E-04  6.93018980599E-04  7.14124550674E-04  7.35872881049E-04
  7.58283546691E-04  7.81376718710E-04  8.05173182520E-04  8.29694356546E-04
  8.54962311498E-04  8.80999790243E-04  9.07830228267E-04  9.35477774778E-04
  9.63967314433E-04  9.93324489741E-04  1.02357572414E-03  1.05474824579E-03
  1.08687011205E-03  1.11997023478E-03  1.15407840632E-03  1.18922532633E-03
  1.22544262941E-03  1.26276291358E-03  1.30121976960E-03  1.34084781126E-03
  1.38168270645E-03  1.42376120935E-03  1.46712119344E-03  1.51180168564E-03
  1.55784290141E-03  1.60528628094E-03  1.65417452649E-03  1.70455164077E-03
  1.75646296659E-03  1.80995522764E-03  1.86507657058E-03  1.92187660832E-03
  1.98040646475E-03  2.04071882067E-03  2.10286796128E-03  2.16690982501E-03
  2.23290205385E-03  2.30090404526E-03  2.37097700563E-03  2.44318400535E-03
  2.51759003560E-03  2.59426206682E-03  2.67326910902E-03  2.75468227387E-03
  2.83857483871E-03  2.92502231251E-03  3.01410250384E-03  3.10589559089E-03
  3.20048419361E-03  3.29795344816E-03  3.39839108342E-03  3.50188750006E-03
  3.60853585183E-03  3.71843212945E-03  3.83167524699E-03  3.94836713090E-03
  4.06861281175E-03  4.19252051877E-03  4.32020177726E-03  4.45177150897E-03
  4.58734813554E-03  4.72705368509E-03  4.87101390205E-03  5.01935836031E-03
  5.17222057992E-03  5.32973814719E-03  5.49205283856E-03  5.65931074820E-03
  5.83166241954E-03  6.00926298070E-03  6.19227228418E-03  6.38085505071E-03
  6.57518101750E-03  6.77542509105E-03  6.98176750453E-03  7.19439398006E-03
  7.41349589580E-03  7.63927045827E-03  7.87192087982E-03  8.11165656154E-03
  8.35869328171E-03  8.61325339006E-03  8.87556600788E-03  9.14586723422E-03
  9.42440035844E-03  9.71141607915E-03  1.00071727299E-02  1.03119365116E-02
  1.06259817322E-02  1.09495910536E-02  1.12830557461E-02  1.16266759505E-02
  1.19807609480E-02  1.23456294390E-02  1.27216098300E-02  1.31090405285E-02
  1.35082702484E-02  1.39196583233E-02  1.43435750303E-02  1.47804019231E-02
  1.52305321753E-02  1.56943709346E-02  1.61723356871E-02  1.66648566334E-02
  1.71723770755E-02  1.76953538162E-02  1.82342575699E-02  1.87895733861E-02
  1.93618010868E-02  1.99514557154E-02  2.05590680009E-02  2.11851848354E-02
  2.18303697663E-02  2.24952035035E-02  2.31802844424E-02  2.38862292020E-02
  2.46136731803E-02  2.53632711259E-02  2.61356977275E-02  2.69316482214E-02
  2.77518390166E-02  2.85970083402E-02  2.94679169016E-02  3.03653485775E-02
  3.12901111167E-02  3.22430368681E-02  3.32249835292E-02  3.42368349182E-02
  3.52795017697E-02  3.63539225542E-02  3.74610643229E-02  3.86019235783E-02
  3.97775271706E-02  4.09889332224E-02  4.22372320809E-02  4.35235472994E-02
  4.48490366484E-02  4.62148931578E-02  4.76223461907E-02  4.90726625497E-02
  5.05671476175E-02  5.21071465315E-02  5.36940453948E-02  5.53292725234E-02
  5.70142997321E-02  5.87506436591E-02  6.05398671312E-02  6.23835805703E-02
  6.42834434429E-02  6.62411657539E-02  6.82585095855E-02  7.03372906833E-02
  7.24793800906E-02  7.46867058325E-02  7.69612546511E-02  7.93050737940E-02
  8.17202728565E-02  8.42090256809E-02  8.67735723127E-02  8.94162210170E-02
  9.21393503560E-02  9.49454113298E-02  9.78369295829E-02  1.00816507677E-01
  1.03886827433E-01  1.07050652346E-01  1.10310830073E-01  1.13670294993E-01
  1.17132070851E-01  1.20699273480E-01  1.24375113602E-01  1.28162899722E-01
  1.32066041104E-01  1.36088050837E-01  1.40232549001E-01  1.44503265926E-01
  1.48904045545E-01  1.53438848856E-01  1.58111757488E-01  1.62926977375E-01
  1.67888842539E-01  1.73001818995E-01  1.78270508765E-01  1.83699654028E-01
  1.89294141378E-01  1.95059006234E-01  2.00999437363E-01  2.07120781552E-01
  2.13428548427E-01  2.19928415401E-01  2.26626232795E-01  2.33528029097E-01
  2.40640016388E-01  2.47968595938E-01  2.55520363962E-01  2.63302117562E-01
  2.71320860842E-01  2.79583811210E-01  2.88098405882E-01  2.96872308566E-01
  3.05913416367E-01  3.15229866892E-01  3.24830045577E-01  3.34722593229E-01
  3.44916413809E-01  3.55420682445E-01  3.66244853686E-01  3.77398670018E-01
  3.88892170628E-01  4.00735700443E-01  4.12939919438E-01  4.25515812236E-01
  4.38474697987E-01  4.51828240565E-01  4.65588459058E-01  4.79767738593E-01
  4.94378841478E-01  5.09434918691E-01  5.24949521720E-01  5.40936614753E-01
  5.57410587254E-01  5.74386266909E-01  5.91878932977E-01  6.09904330038E-01
  6.28478682165E-01  6.47618707530E-01  6.67341633448E-01  6.87665211882E-01
  7.08607735426E-01  7.30188053764E-01  7.52425590640E-01  7.75340361338E-01
  7.98952990698E-01  8.23284731680E-01  8.48357484495E-01  8.74193816311E-01
  9.00816981572E-01  9.28250942923E-01  9.56520392782E-01  9.85650775561E-01
  1.01566831057E+00  1.04660001562E+00  1.07847373133E+00  1.11131814620E+00
  1.14516282242E+00  1.18003822248E+00  1.21597573659E+00  1.25300771095E+00
  1.29116747682E+00  1.33048938058E+00  1.37100881460E+00  1.41276224910E+00
  1.45578726498E+00  1.50012258767E+00  1.54580812195E+00  1.59288498789E+00
  1.64139555783E+00  1.69138349458E+00  1.74289379064E+00  1.79597280877E+00
  1.85066832365E+00
  </PP_RAB>
</PP_MESH>


<PP_NLCC>
  5.60761590000E-02  5.60761590000E-02  5.60761590000E-02  5.60761590000E-02
  5.60761590000E-02  5.60761590000E-02  5.60761590000E-02  5.60761590000E-02
  5.60761590000E-02  5.60761590000E-02  5.60761590000E-02  5.60761590000E-02
  5.60761590000E-02  5.60761590000E-02  5.60761590000E-02  5.60761590000E-02
  5.60761590000E-02  5.60761590000E-02  5.60761590000E-02  5.60761590000E-02
  5.60761590000E-02  5.60761590000E-02  5.60761590000E-02  5.60761590000E-02
  5.60761590000E-02  5.60761590000E-02  5.60761590000E-02  5.60761590000E-02
  5.60761590000E-02  5.60761590000E-02  5.60761590000E-02  5.60761590000E-02
  5.60761590000E-02  5.60761590000E-02  5.60761590000E-02  5.60761590000E-02
  5.60761590000E-02  5.60761590000E-02  5.60761590000E-02  5.60761590000E-02
  5.60761590000E-02  5.60761590000E-02  5.60761590000E-02  5.60761590000E-02
  5.60761590000E-02  5.60761590000E-02  5.60761590000E-02  5.60761590000E-02
  5.60761590000E-02  5.60761590000E-02  5.60761590000E-02  5.60761590000E-02
  5.60761590000E-02  5.60761590000E-02  5.60761590000E-02  5.60761590000E-02
  5.60761590000E-02  5.60761590000E-02  5.60761590000E-02  5.60761590000E-02
  5.60761590000E-02  5.60761590000E-02  5.60761590000E-02  5.60761580000E-02
  5.60761580000E-02  5.60761580000E-02  5.60761580000E-02  5.60761580000E-02
  5.60761580000E-02  5.60761580000E-02  5.60761580000E-02  5.60761580000E-02
  5.60761580000E-02  5.60761580000E-02  5.60761580000E-02  5.60761580000E-02
  5.60761580000E-02  5.60761580000E-02  5.60761570000E-02  5.60761570000E-02
  5.60761570000E-02  5.60761570000E-02  5.60761570000E-02  5.60761570000E-02
  5.60761570000E-02  5.60761560000E-02  5.60761560000E-02  5.60761560000E-02
  5.60761560000E-02  5.60761560000E-02  5.60761560000E-02  5.60761550000E-02
  5.60761550000E-02  5.60761550000E-02  5.60761550000E-02  5.60761540000E-02
  5.60761540000E-02  5.60761540000E-02  5.60761530000E-02  5.60761530000E-02
  5.60761530000E-02  5.60761520000E-02  5.60761520000E-02  5.60761510000E-02
  5.60761510000E-02  5.60761500000E-02  5.60761500000E-02  5.60761490000E-02
  5.60761480000E-02  5.60761480000E-02  5.60761470000E-02  5.60761460000E-02
  5.60761450000E-02  5.60761450000E-02  5.60761440000E-02  5.60761430000E-02
  5.60761420000E-02  5.60761410000E-02  5.60761400000E-02  5.60761380000E-02
  5.60761370000E-02  5.60761360000E-02  5.60761340000E-02  5.60761330000E-02
  5.60761310000E-02  5.60761290000E-02  5.60761270000E-02  5.60761250000E-02
  5.60761230000E-02  5.60761210000E-02  5.60761190000E-02  5.60761160000E-02
  5.60761140000E-02  5.60761110000E-02  5.60761080000E-02  5.60761050000E-02
  5.60761010000E-02  5.60760980000E-02  5.60760940000E-02  5.60760900000E-02
  5.60760860000E-02  5.60760810000E-02  5.60760760000E-02  5.60760710000E-02
  5.60760660000E-02  5.60760600000E-02  5.60760540000E-02  5.60760470000E-02
  5.60760400000E-02  5.60760330000E-02  5.60760250000E-02  5.60760170000E-02
  5.60760080000E-02  5.60759990000E-02  5.60759890000E-02  5.60759780000E-02
  5.60759670000E-02  5.60759550000E-02  5.60759420000E-02  5.60759290000E-02
  5.60759150000E-02  5.60759000000E-02  5.60758840000E-02  5.60758660000E-02
  5.60758480000E-02  5.60758290000E-02  5.60758090000E-02  5.60757870000E-02
  5.60757640000E-02  5.60757400000E-02  5.60757140000E-02  5.60756860000E-02
  5.60756570000E-02  5.60756260000E-02  5.60755930000E-02  5.60755580000E-02
  5.60755210000E-02  5.60754810000E-02  5.60754390000E-02  5.60753950000E-02
  5.60753470000E-02  5.60752970000E-02  5.60752440000E-02  5.60751870000E-02
  5.60751270000E-02  5.60750630000E-02  5.60749960000E-02  5.60749240000E-02
  5.60748470000E-02  5.60747660000E-02  5.60746800000E-02  5.60745890000E-02
  5.60744920000E-02  5.60743880000E-02  5.60742790000E-02  5.60741630000E-02
  5.60740390000E-02  5.60739080000E-02  5.60737690000E-02  5.60736210000E-02
  5.60734640000E-02  5.60732970000E-02  5.60731210000E-02  5.60729330000E-02
  5.60727330000E-02  5.60725210000E-02  5.60722960000E-02  5.60720570000E-02
  5.60718040000E-02  5.60715340000E-02  5.60712480000E-02  5.60709450000E-02
  5.60706220000E-02  5.60702800000E-02  5.60699170000E-02  5.60695310000E-02
  5.60691210000E-02  5.60686850000E-02  5.60682230000E-02  5.60677330000E-02
  5.60672120000E-02  5.60666580000E-02  5.60660710000E-02  5.60654470000E-02
  5.60647850000E-02  5.60640810000E-02  5.60633340000E-02  5.60625410000E-02
  5.60616990000E-02  5.60608050000E-02  5.60598560000E-02  5.60588480000E-02
  5.60577780000E-02  5.60566410000E-02  5.60554340000E-02  5.60541530000E-02
  5.60527920000E-02  5.60513480000E-02  5.60498140000E-02  5.60481850000E-02
  5.60464550000E-02  5.60446190000E-02  5.60426690000E-02  5.60405980000E-02
  5.60384000000E-02  5.60360650000E-02  5.60335860000E-02  5.60309540000E-02
  5.60281600000E-02  5.60251930000E-02  5.60220420000E-02  5.60186960000E-02
  5.60151440000E-02  5.60113730000E-02  5.60073680000E-02  5.60031160000E-02
  5.59986010000E-02  5.59938070000E-02  5.59887170000E-02  5.59833130000E-02
  5.59775740000E-02  5.59714820000E-02  5.59650130000E-02  5.59581440000E-02
  5.59508510000E-02  5.59431080000E-02  5.59348870000E-02  5.59261580000E-02
  5.59168910000E-02  5.59070510000E-02  5.58966040000E-02  5.58855120000E-02
  5.58737360000E-02  5.58612330000E-02  5.58479590000E-02  5.58338660000E-02
  5.58189050000E-02  5.58030200000E-02  5.57861560000E-02  5.57682530000E-02
  5.57492470000E-02  5.57290690000E-02  5.57076490000E-02  5.56849090000E-02
  5.56607690000E-02  5.56351440000E-02  5.56079420000E-02  5.55790660000E-02
  5.55484140000E-02  5.55158780000E-02  5.54813430000E-02  5.54446870000E-02
  5.54057790000E-02  5.53644840000E-02  5.53206550000E-02  5.52741380000E-02
  5.52247710000E-02  5.51723800000E-02  5.51167810000E-02  5.50577820000E-02
  5.49951750000E-02  5.49287440000E-02  5.48582570000E-02  5.47834710000E-02
  5.47041270000E-02  5.46199510000E-02  5.45306550000E-02  5.44359330000E-02
  5.43354600000E-02  5.42288960000E-02  5.41158790000E-02  5.39960260000E-02
  5.38689350000E-02  5.37341800000E-02  5.35913120000E-02  5.34398570000E-02
  5.32793140000E-02  5.31091580000E-02  5.29288320000E-02  5.27377530000E-02
  5.25353060000E-02  5.23208430000E-02  5.20936850000E-02  5.18531190000E-02
  5.15983950000E-02  5.13287270000E-02  5.10432920000E-02  5.07412290000E-02
  5.04216360000E-02  5.00835740000E-02  4.97260610000E-02  4.93480740000E-02
  4.89485500000E-02  4.85263840000E-02  4.80804310000E-02  4.76095060000E-02
  4.71123850000E-02  4.65878080000E-02  4.60344770000E-02  4.54510640000E-02
  4.48362140000E-02  4.41885440000E-02  4.35066550000E-02  4.27891340000E-02
  4.20345620000E-02  4.12415230000E-02  4.04086160000E-02  3.95344640000E-02
  3.86177260000E-02  3.76571180000E-02  3.66514240000E-02  3.55995190000E-02
  3.45003900000E-02  3.33531600000E-02  3.21571160000E-02  3.09117400000E-02
  2.96167380000E-02  2.82720820000E-02  2.68780460000E-02  2.54352510000E-02
  2.39447070000E-02  2.24078690000E-02  2.08266810000E-02  1.92036400000E-02
  1.75418420000E-02  1.58450510000E-02  1.41177510000E-02  1.23652050000E-02
  1.05935150000E-02  8.80966970000E-03  7.02213150000E-03  5.56645100000E-03
  4.38753410000E-03  3.43814200000E-03  2.67801720000E-03  2.07306270000E-03
  1.59457720000E-03  1.21854540000E-03  9.24992350000E-04  6.97399110000E-04
  5.22185350000E-04  3.88258390000E-04  2.86624440000E-04  2.10052510000E-04
  1.52781350000E-04  1.10262200000E-04  7.89344850000E-05  5.60336460000E-05
  3.94296480000E-05  2.74936890000E-05  1.89897820000E-05  1.29874080000E-05
  8.79181930000E-06  5.88880620000E-06  3.90128000000E-06  2.55539440000E-06
  1.65432030000E-06  1.05811070000E-06  6.68389710000E-07  4.16821570000E-07
  2.56521160000E-07  1.55730950000E-07  9.32236190000E-08  5.50035200000E-08
  3.19724310000E-08  1.83012620000E-08  1.03109360000E-08  5.71491690000E-09
  3.11451900000E-09  1.66804220000E-09  8.77435320000E-10  4.53068470000E-10
  2.29505700000E-10  1.13982060000E-10  5.54648010000E-11  2.64273680000E-11
  1.23212950000E-11  5.61731920000E-12  2.50248250000E-12  1.08862470000E-12
  4.62114680000E-13  1.91292040000E-13  7.71810910000E-14  0.00000000000E+00
  0.00000000000E+00  0.00000000000E+00  0.00000000000E+00  0.00000000000E+00
  0.00000000000E+00  0.00000000000E+00  0.00000000000E+00  0.00000000000E+00
  0.00000000000E+00  0.00000000000E+00  0.00000000000E+00  0.00000000000E+00
  0.00000000000E+00  0.00000000000E+00  0.00000000000E+00  0.00000000000E+00
  0.00000000000E+00  0.00000000000E+00  0.00000000000E+00  0.00000000000E+00
  0.00000000000E+00  0.00000000000E+00  0.00000000000E+00  0.00000000000E+00
  0.00000000000E+00  0.00000000000E+00  0.00000000000E+00  0.00000000000E+00
  0.00000000000E+00  0.00000000000E+00  0.00000000000E+00  0.00000000000E+00
  0.00000000000E+00  0.00000000000E+00  0.00000000000E+00  0.00000000000E+00
  0.00000000000E+00  0.00000000000E+00  0.00000000000E+00  0.00000000000E+00
  0.00000000000E+00  0.00000000000E+00  0.00000000000E+00  0.00000000000E+00
  0.00000000000E+00  0.00000000000E+00  0.00000000000E+00  0.00000000000E+00
  0.00000000000E+00  0.00000000000E+00  0.00000000000E+00  0.00000000000E+00
  0.00000000000E+00  0.00000000000E+00  0.00000000000E+00  0.00000000000E+00
  0.00000000000E+00  0.00000000000E+00  0.00000000000E+00  0.00000000000E+00
  0.00000000000E+00
</PP_NLCC>


<PP_LOCAL>
 -2.53216750000E-01 -2.53216750000E-01 -2.53216750000E-01 -2.53216750000E-01
 -2.53216750000E-01 -2.53216750000E-01 -2.53216750000E-01 -2.53216750000E-01
 -2.53216750000E-01 -2.53216750000E-01 -2.53216750000E-01 -2.53216750000E-01
 -2.53216750000E-01 -2.53216750000E-01 -2.53216750000E-01 -2.53216750000E-01
 -2.53216750000E-01 -2.53216750000E-01 -2.53216750000E-01 -2.53216750000E-01
 -2.53216750000E-01 -2.53216750000E-01 -2.53216750000E-01 -2.53216750000E-01
 -2.53216750000E-01 -2.53216750000E-01 -2.53216750000E-01 -2.53216750000E-01
 -2.53216750000E-01 -2.53216750000E-01 -2.53216750000E-01 -2.53216750000E-01