<PP_INFO> 
Generated using Vanderbilt code, version 7 3 3 
Author: Stefano de Gironcoli  Generation date: 25 9 2003 
Automatically converted from original format 
1 The Pseudo was generated with a Scalar-Relativistic Calculation 
1.80000000000E+00 Local Potential cutoff radius 
nl pn l occ Rcut Rcut US E pseu 
4S 4 0 2.00 10.00000000000 1.80000000000 -5.23379211100 
4P 4 1 6.00 10.00000000000 1.80000000000 -3.45778710900 
4D 4 2 2.00 10.00000000000 1.80000000000 -1.02425667000 
5S 5 0 2.00 10.00000000000 1.80000000000 -0.87337726000 
</PP_INFO>

<PP_HEADER> 
0                       Version Number 
Nb                      Element 
US                      Ultrasoft pseudopotential 
F                       Nonlinear Core Correction 
SLA PZ NOGX NOGC        PZ Exchange-Correlation functional 
13.00000000000          Z valence 
-112.74187452900        Total energy 
0.0000000 0.0000000     Suggested cutoff for wfc and rho 
2                       Max angular momentum component 
887                     Number of points in mesh 
4 6                     Number of Wavefunctions, Number of Projectors 
Wavefunctions nl l occ 
4S 0 2.00 
4P 1 6.00 
4D 2 2.00 
5S 0 2.00 
</PP_HEADER>

<PP_MESH> 
<PP_R> 
0.00000000000E+00 1.03343436780E-06 2.08453385385E-06 3.15360041868E-06 
4.24094118444E-06 5.34686852307E-06 6.47170014612E-06 7.61575919592E-06 
8.77937433853E-06 9.96287985803E-06 1.11666157527E-05 1.23909278325E-05 
1.36361678186E-05 1.49026934445E-05 1.61908685583E-05 1.75010632279E-05 
1.88336538469E-05 2.01890232427E-05 2.15675607868E-05 2.29696625063E-05 
2.43957311978E-05 2.58461765434E-05 2.73214152280E-05 2.88218710590E-05 
3.03479750883E-05 3.19001657362E-05 3.34788889170E-05 3.50845981672E-05 
3.67177547762E-05 3.83788279181E-05 4.00682947871E-05 4.17866407345E-05 
4.35343594076E-05 4.53119528924E-05 4.71199318569E-05 4.89588156986E-05 
5.08291326931E-05 5.27314201465E-05 5.46662245490E-05 5.66341017326E-05 
5.86356170302E-05 6.06713454385E-05 6.27418717828E-05 6.48477908853E-05 
6.69897077358E-05 6.91682376656E-05 7.13840065242E-05 7.36376508590E-05 
7.59298180986E-05 7.82611667381E-05 8.06323665289E-05 8.30440986709E-05 
8.54970560080E-05 8.79919432275E-05 9.05294770620E-05 9.31103864960E-05 
9.57354129748E-05 9.84053106178E-05 1.01120846435E-04 1.03882800547E-04 
1.06691966410E-04 1.09549151043E-04 1.12455175259E-04 1.15410873904E-04 
1.18417096092E-04 1.21474705453E-04 1.24584580379E-04 1.27747614276E-04 
1.30964715824E-04 1.34236809233E-04 1.37564834512E-04 1.40949747738E-04 
1.44392521332E-04 1.47894144336E-04 1.51455622698E-04 1.55077979562E-04 
1.58762255562E-04 1.62509509118E-04 1.66320816743E-04 1.70197273354E-04 
1.74139992580E-04 1.78150107089E-04 1.82228768909E-04 1.86377149760E-04 
1.90596441392E-04 1.94887855927E-04 1.99252626204E-04 2.03692006137E-04 
2.08207271074E-04 2.12799718164E-04 2.17470666728E-04 2.22221458638E-04 
2.27053458706E-04 2.31968055072E-04 2.36966659603E-04 2.42050708303E-04 
2.47221661720E-04 2.52481005369E-04 2.57830250158E-04 2.63270932820E-04 
2.68804616360E-04 2.74432890497E-04 2.80157372126E-04 2.85979705779E-04 
2.91901564100E-04 2.97924648324E-04 3.04050688767E-04 3.10281445322E-04 
3.16618707965E-04 3.23064297268E-04 3.29620064925E-04 3.36287894280E-04 
3.43069700873E-04 3.49967432984E-04 3.56983072200E-04 3.64118633976E-04 
3.71376168223E-04 3.78757759889E-04 3.86265529563E-04 3.93901634081E-04 
4.01668267149E-04 4.09567659970E-04 4.17602081887E-04 4.25773841033E-04 
4.34085284998E-04 4.42538801497E-04 4.51136819064E-04 4.59881807741E-04 
4.68776279794E-04 4.77822790435E-04 4.87023938549E-04 4.96382367449E-04 
5.05900765631E-04 5.15581867545E-04 5.25428454385E-04 5.35443354886E-04 
5.45629446133E-04 5.55989654395E-04 5.66526955958E-04 5.77244377985E-04 
5.88144999384E-04 5.99231951694E-04 6.10508419979E-04 6.21977643753E-04 
6.33642917900E-04 6.45507593629E-04 6.57575079431E-04 6.69848842061E-04 
6.82332407533E-04 6.95029362135E-04 7.07943353457E-04 7.21078091436E-04 
7.34437349431E-04 7.48024965296E-04 7.61844842492E-04 7.75900951201E-04 
7.90197329472E-04 8.04738084377E-04 8.19527393194E-04 8.34569504605E-04 
8.49868739917E-04 8.65429494306E-04 8.81256238074E-04 8.97353517938E-04 
9.13725958336E-04 9.30378262754E-04 9.47315215075E-04 9.64541680958E-04 
9.82062609234E-04 9.99883033327E-04 1.01800807270E-03 1.03644293432E-03 
1.05519291418E-03 1.07426339877E-03 1.09365986669E-03 1.11338789015E-03 
1.13345313664E-03 1.15386137052E-03 1.17461845467E-03 1.19573035221E-03 
1.21720312817E-03 1.23904295127E-03 1.26125609566E-03 1.28384894276E-03 
1.30682798304E-03 1.33019981796E-03 1.35397116177E-03 1.37814884352E-03 
1.40273980901E-03 1.42775112273E-03 1.45318996995E-03 1.47906365876E-03 
1.50537962218E-03 1.53214542026E-03 1.55936874230E-03 1.58705740904E-03 
1.61521937490E-03 1.64386273026E-03 1.67299570380E-03 1.70262666487E-03 
1.73276412587E-03 1.76341674470E-03 1.79459332727E-03 1.82630283001E-03 
1.85855436244E-03 1.89135718981E-03 1.92472073573E-03 1.95865458491E-03 
1.99316848589E-03 2.02827235383E-03 2.06397627340E-03 2.10029050165E-03 
2.13722547095E-03 2.17479179200E-03 2.21300025688E-03 2.25186184215E-03 
2.29138771198E-03 2.33158922139E-03 2.37247791950E-03 2.41406555284E-03 
2.45636406873E-03 2.49938561872E-03 2.54314256206E-03 2.58764746928E-03 
2.63291312578E-03 2.67895253551E-03 2.72577892469E-03 2.77340574564E-03 
2.82184668062E-03 2.87111564579E-03 2.92122679516E-03 2.97219452468E-03 
3.02403347641E-03 3.07675854268E-03 3.13038487037E-03 3.18492786529E-03 
3.24040319658E-03 3.29682680125E-03 3.35421488869E-03 3.41258394539E-03 
3.47195073965E-03 3.53233232641E-03 3.59374605213E-03 3.65620955978E-03 
3.71974079392E-03 3.78435800584E-03 3.85007975881E-03 3.91692493343E-03 
3.98491273302E-03 4.05406268916E-03 4.12439466730E-03 4.19592887244E-03 
4.26868585499E-03 4.34268651661E-03 4.41795211627E-03 4.49450427631E-03 
4.57236498869E-03 4.65155662129E-03 4.73210192432E-03 4.81402403690E-03 
4.89734649366E-03 4.98209323153E-03 5.06828859662E-03 5.15595735117E-03 
5.24512468073E-03 5.33581620135E-03 5.42805796694E-03 5.52187647679E-03 
5.61729868312E-03 5.71435199890E-03 5.81306430566E-03 5.91346396154E-03 
6.01557980942E-03 6.11944118520E-03 6.22507792626E-03 6.33252037997E-03 
6.44179941248E-03 6.55294641755E-03 6.66599332554E-03 6.78097261266E-03 
6.89791731022E-03 7.01686101418E-03 7.13783789476E-03 7.26088270627E-03 
7.38603079712E-03 7.51331811992E-03 7.64278124186E-03 7.77445735519E-03 
7.90838428790E-03 8.04460051462E-03 8.18314516764E-03 8.32405804814E-03 
8.46737963767E-03 8.61315110975E-03 8.76141434171E-03 8.91221192670E-03 
9.06558718595E-03 9.22158418121E-03 9.38024772739E-03 9.54162340545E-03 
9.70575757552E-03 9.87269739015E-03 1.00424908079E-02 1.02151866072E-02 
1.03908344002E-02 1.05694846470E-02 1.07511886705E-02 1.09359986707E-02 
1.11239677399E-02 1.13151498781E-02 1.15096000080E-02 1.17073739916E-02 
1.19085286453E-02 1.21131217572E-02 1.23212121028E-02 1.25328594624E-02 
1.27481246382E-02 1.29670694718E-02 1.31897568618E-02 1.34162507819E-02 
1.36466162995E-02 1.38809195941E-02 1.41192279765E-02 1.43616099082E-02 
1.46081350207E-02 1.48588741359E-02 1.51138992864E-02 1.53732837359E-02 
1.56371020006E-02 1.59054298703E-02 1.61783444304E-02 1.64559240841E-02 
1.67382485746E-02 1.70253990082E-02 1.73174578778E-02 1.76145090861E-02 
1.79166379702E-02 1.82239313260E-02 1.85364774328E-02 1.88543660791E-02 
1.91776885882E-02 1.95065378444E-02 1.98410083196E-02 2.01811961008E-02 
2.05271989174E-02 2.08791161692E-02 2.12370489553E-02 2.16011001028E-02 
2.19713741967E-02 2.23479776094E-02 2.27310185318E-02 2.31206070043E-02 
2.35168549480E-02 2.39198761972E-02 2.43297865323E-02 2.47467037124E-02 
2.51707475099E-02 2.56020397443E-02 2.60407043176E-02 2.64868672495E-02 
2.69406567141E-02 2.74022030762E-02 2.78716389293E-02 2.83490991331E-02 
2.88347208528E-02 2.93286435980E-02 2.98310092632E-02 3.03419621684E-02 
3.08616491004E-02 3.13902193552E-02 3.19278247808E-02 3.24746198209E-02 
3.30307615591E-02 3.35964097641E-02 3.41717269358E-02 3.47568783516E-02 
3.53520321142E-02 3.59573591998E-02 3.65730335071E-02 3.71992319075E-02 
3.78361342955E-02 3.84839236411E-02 3.91427860414E-02 3.98129107749E-02 
4.04944903556E-02 4.11877205879E-02 4.18928006236E-02 4.26099330184E-02 
4.33393237908E-02 4.40811824804E-02 4.48357222090E-02 4.56031597411E-02 
4.63837155469E-02 4.71776138648E-02 4.79850827665E-02 4.88063542221E-02 
4.96416641671E-02 5.04912525698E-02 5.13553635006E-02 5.22342452017E-02 
5.31281501590E-02 5.40373351740E-02 5.49620614379E-02 5.59025946068E-02 
5.68592048775E-02 5.78321670658E-02 5.88217606848E-02 5.98282700256E-02 
6.08519842389E-02 6.18931974180E-02 6.29522086832E-02 6.40293222681E-02 
6.51248476064E-02 6.62390994215E-02 6.73723978163E-02 6.85250683655E-02 
6.96974422091E-02 7.08898561473E-02 7.21026527377E-02 7.33361803932E-02 
7.45907934824E-02 7.58668524314E-02 7.71647238273E-02 7.84847805233E-02 
7.98274017463E-02 8.11929732053E-02 8.25818872026E-02 8.39945427463E-02 
8.54313456650E-02 8.68927087244E-02 8.83790517458E-02 8.98908017267E-02 
9.14283929638E-02 9.29922671772E-02 9.45828736377E-02 9.62006692957E-02 
9.78461189127E-02 9.95196951946E-02 1.01221878927E-01 1.02953159115E-01 
1.04714033122E-01 1.06505006812E-01 1.08326594698E-01 1.10179320087E-01 
1.12063715230E-01 1.13980321479E-01 1.15929689436E-01 1.17912379119E-01 
1.19928960114E-01 1.21980011747E-01 1.24066123245E-01 1.26187893908E-01 
1.28345933279E-01 1.30540861322E-01 1.32773308596E-01 1.35043916440E-01 
1.37353337157E-01 1.39702234198E-01 1.42091282356E-01 1.44521167957E-01 
1.46992589062E-01 1.49506255662E-01 1.52062889884E-01 1.54663226200E-01 
1.57308011636E-01 1.59998005988E-01 1.62733982039E-01 1.65516725783E-01 
1.68347036647E-01 1.71225727726E-01 1.74153626010E-01 1.77131572630E-01 
1.80160423092E-01 1.83241047524E-01 1.86374330932E-01 1.89561173448E-01 
1.92802490588E-01 1.96099213521E-01 1.99452289332E-01 2.02862681294E-01 
2.06331369147E-01 2.09859349378E-01 2.13447635508E-01 2.17097258381E-01 
2.20809266463E-01 2.24584726143E-01 2.28424722038E-01 2.32330357303E-01 
2.36302753952E-01 2.40343053178E-01 2.44452415680E-01 2.48632021999E-01 
2.52883072855E-01 2.57206789493E-01 2.61604414033E-01 2.66077209826E-01 
2.70626461822E-01 2.75253476931E-01 2.79959584406E-01 2.84746136220E-01 
2.89614507458E-01 2.94566096707E-01 2.99602326464E-01 3.04724643541E-01 
3.09934519478E-01 3.15233450974E-01 3.20622960309E-01 3.26104595784E-01 
3.31679932168E-01 3.37350571145E-01 3.43118141782E-01 3.48984300990E-01 
3.54950734003E-01 3.61019154861E-01 3.67191306904E-01 3.73468963273E-01 
3.79853927416E-01 3.86348033611E-01 3.92953147487E-01 3.99671166567E-01 
4.06504020807E-01 4.13453673155E-01 4.20522120110E-01 4.27711392301E-01 
4.35023555067E-01 4.42460709051E-01 4.50024990802E-01 4.57718573393E-01 
4.65543667042E-01 4.73502519745E-01 4.81597417928E-01 4.89830687098E-01 
4.98204692514E-01 5.06721839865E-01 5.15384575964E-01 5.24195389447E-01 
5.33156811490E-01 5.42271416536E-01 5.51541823035E-01 5.60970694195E-01 
5.70560738748E-01 5.80314711729E-01 5.90235415265E-01 6.00325699383E-01 
6.10588462825E-01 6.21026653886E-01 6.31643271256E-01 6.42441364882E-01 
6.53424036849E-01 6.64594442266E-01 6.75955790174E-01 6.87511344468E-01 
6.99264424836E-01 7.11218407710E-01 7.23376727238E-01 7.35742876271E-01 
7.48320407362E-01 7.61112933794E-01 7.74124130612E-01 7.87357735681E-01 
8.00817550760E-01 8.14507442593E-01 8.28431344021E-01 8.42593255111E-01 
8.56997244307E-01 8.71647449596E-01 8.86548079698E-01 9.01703415276E-01 
9.17117810165E-01 9.32795692622E-01 9.48741566600E-01 9.64960013039E-01 
9.81455691185E-01 9.98233339927E-01 1.01529777916E+00 1.03265391116E+00 
1.05030672202E+00 1.06826128305E+00 1.08652275224E+00 1.10509637576E+00 
1.12398748945E+00 1.14320152036E+00 1.16274398832E+00 1.18262050749E+00 
1.20283678802E+00 1.22339863765E+00 1.24431196340E+00 1.26558277327E+00 
1.28721717795E+00 1.30922139259E+00 1.33160173856E+00 1.35436464531E+00 
1.37751665219E+00 1.40106441031E+00 1.42501468450E+00 1.44937435519E+00 
1.47415042046E+00 1.49934999799E+00 1.52498032713E+00 1.55104877097E+00 
1.57756281848E+00 1.60453008663E+00 1.63195832259E+00 1.65985540597E+00 
1.68822935105E+00 1.71708830912E+00 1.74644057081E+00 1.77629456845E+00 
1.80665887851E+00 1.83754222407E+00 1.86895347733E+00 1.90090166212E+00 
1.93339595655E+00 1.96644569558E+00 2.00006037379E+00 2.03424964800E+00 
2.06902334014E+00 2.10439144002E+00 2.14036410820E+00 2.17695167894E+00 
2.21416466315E+00 2.25201375138E+00 2.29050981695E+00 2.32966391904E+00 
2.36948730586E+00 2.40999141790E+00 2.45118789121E+00 2.49308856073E+00 
2.53570546372E+00 2.57905084319E+00 2.62313715143E+00 2.66797705359E+00 
2.71358343129E+00 2.75996938636E+00 2.80714824461E+00 2.85513355959E+00 
2.90393911656E+00 2.95357893642E+00 3.00406727971E+00 3.05541865078E+00 
3.10764780186E+00 3.16076973740E+00 3.21479971828E+00 3.26975326628E+00 
3.32564616849E+00 3.38249448186E+00 3.44031453780E+00 3.49912294691E+00 
3.55893660370E+00 3.61977269147E+00 3.68164868726E+00 3.74458236685E+00 
3.80859180985E+00 3.87369540496E+00 3.93991185516E+00 4.00726018316E+00 
4.07575973684E+00 4.14543019479E+00 4.21629157198E+00 4.28836422553E+00 
4.36166886050E+00 4.43622653590E+00 4.51205867071E+00 4.58918705003E+00 
4.66763383135E+00 4.74742155092E+00 4.82857313020E+00 4.91111188247E+00 
4.99506151952E+00 5.08044615846E+00 5.16729032863E+00 5.25561897869E+00 
5.34545748376E+00 5.43683165268E+00 5.52976773550E+00 5.62429243096E+00 
5.72043289416E+00 5.81821674441E+00 5.91767207310E+00 6.01882745184E+00 
6.12171194061E+00 6.22635509613E+00 6.33278698034E+00 6.44103816908E+00 
6.55113976082E+00 6.66312338560E+00 6.77702121417E+00 6.89286596716E+00 
7.01069092452E+00 7.13052993510E+00 7.25241742631E+00 7.37638841407E+00 
7.50247851286E+00 7.63072394591E+00 7.76116155566E+00 7.89382881430E+00 
8.02876383458E+00 8.16600538072E+00 8.30559287955E+00 8.44756643186E+00 
8.59196682391E+00 8.73883553913E+00 8.88821477007E+00 9.04014743049E+00 
9.19467716769E+00 9.35184837509E+00 9.51170620493E+00 9.67429658127E+00 
9.83966621318E+00 1.00078626082E+01 1.01789340858E+01 1.03529297915E+01 
1.05298997111E+01 1.07098946844E+01 1.08929664206E+01 1.10791675126E+01 
1.12685514524E+01 1.14611726464E+01 1.16570864309E+01 1.18563490880E+01 
1.20590178623E+01 1.22651509763E+01 1.24748076483E+01 1.26880481085E+01 
1.29049336167E+01 1.31255264800E+01 1.33498900705E+01 1.35780888434E+01 
1.38101883558E+01 1.40462552855E+01 1.42863574499E+01 1.45305638257E+01 
1.47789445687E+01 1.50315710338E+01 1.52885157958E+01 1.55498526699E+01 
1.58156567332E+01 1.60860043459E+01 1.63609731738E+01 1.66406422100E+01 
1.69250917981E+01 1.72144036550E+01 1.75086608942E+01 1.78079480503E+01 
1.81123511027E+01 1.84219575004E+01 1.87368561873E+01 1.90571376279E+01 
1.93828938327E+01 1.97142183851E+01 2.00512064684E+01 2.03939548927E+01 
2.07425621229E+01 2.10971283073E+01 2.14577553057E+01 2.18245467193E+01 
2.21976079203E+01 2.25770460819E+01 2.29629702092E+01 2.33554911710E+01 
2.37547217307E+01 2.41607765797E+01 2.45737723697E+01 2.49938277463E+01 
2.54210633833E+01 2.58556020173E+01 2.62975684828E+01 2.67470897482E+01 
2.72042949523E+01 2.76693154412E+01 2.81422848065E+01 2.86233389229E+01 
2.91126159881E+01 2.96102565619E+01 3.01164036068E+01 3.06312025290E+01 
3.11548012204E+01 3.16873501006E+01 3.22290021607E+01 3.27799130069E+01 
3.33402409050E+01 3.39101468267E+01 3.44897944946E+01 3.50793504305E+01 
3.56789840024E+01 3.62888674732E+01 3.69091760509E+01 3.75400879380E+01 
3.81817843833E+01 3.88344497337E+01 3.94982714874E+01 4.01734403476E+01 
4.08601502772E+01 4.15585985547E+01 4.22689858306E+01 4.29915161857E+01 
4.37263971888E+01 4.44738399570E+01 4.52340592162E+01 4.60072733627E+01 
4.67937045259E+01 4.75935786322E+01 4.84071254701E+01 4.92345787558E+01 
5.00761762007E+01 5.09321595793E+01 5.18027747991E+01 5.26882719711E+01 
5.35889054814E+01 5.45049340646E+01 5.54366208781E+01 5.63842335773E+01 
5.73480443931E+01 5.83283302098E+01 5.93253726443E+01 6.03394581278E+01 
6.13708779874E+01 6.24199285300E+01 6.34869111275E+01 6.45721323035E+01 
6.56759038209E+01 6.67985427720E+01 6.79403716692E+01 6.91017185378E+01 
7.02829170103E+01 7.14843064222E+01 7.27062319095E+01 7.39490445076E+01 
7.52131012526E+01 7.64987652836E+01 7.78064059468E+01 7.91363989022E+01 
8.04891262310E+01 8.18649765457E+01 8.32643451013E+01 8.46876339094E+01 
8.61352518533E+01 8.76076148056E+01 8.91051457478E+01 9.06282748914E+01 
9.21774398021E+01 9.37530855249E+01 9.53556647123E+01 9.69856377543E+01 
9.86434729107E+01 1.00329646445E+02 1.02044642763E+02 1.03788954550E+02 
1.05563082912E+02 1.07367537523E+02 1.09202836766E+02 1.11069507889E+02 
1.12968087150E+02 1.14899119974E+02 1.16863161108E+02 1.18860774785E+02 
1.20892534880E+02 1.22959025078E+02 1.25060839041E+02 1.27198580582E+02 
1.29372863830E+02 1.31584313416E+02 1.33833564647E+02 1.36121263688E+02 
1.38448067751E+02 1.40814645283E+02 1.43221676155E+02 1.45669851860E+02 
1.48159875712E+02 1.50692463047E+02 1.53268341428E+02 1.55888250854E+02 
1.58552943976E+02 1.61263186308E+02 1.64019756451E+02 1.66823446312E+02 
1.69675061340E+02 1.72575420746E+02 1.75525357748E+02 1.78525719807E+02 
1.81577368867E+02 1.84681181610E+02 1.87838049699E+02 1.91048880043E+02 
1.94314595050E+02 1.97636132898E+02 2.01014447800E+02 
</PP_R> 
<PP_RAB> 
1.02470118920E-06 1.04221702594E-06 1.06003227147E-06 1.07815204375E-06 
1.09658154825E-06 1.11532607942E-06 1.13439102218E-06 1.15378185353E-06 
1.17350414409E-06 1.19356355967E-06 1.21396586297E-06 1.23471691517E-06 
1.25582267765E-06 1.27728921368E-06 1.29912269019E-06 1.32132937950E-06 
1.34391566118E-06 1.36688802382E-06 1.39025306694E-06 1.41401750286E-06 
1.43818815865E-06 1.46277197807E-06 1.48777602357E-06 1.51320747833E-06 
1.53907364832E-06 1.56538196439E-06 1.59213998440E-06 1.61935539542E-06 
1.64703601591E-06 1.67518979798E-06 1.70382482966E-06 1.73294933724E-06 
1.76257168763E-06 1.79270039076E-06 1.82334410202E-06 1.85451162477E-06 
1.88621191281E-06 1.91845407304E-06 1.95124736799E-06 1.98460121856E-06 
2.01852520666E-06 2.05302907798E-06 2.08812274484E-06 2.12381628895E-06 
2.16011996438E-06 2.19704420048E-06 2.23459960486E-06 2.27279696647E-06 
2.31164725866E-06 2.35116164238E-06 2.39135146935E-06 2.43222828531E-06 
2.47380383340E-06 2.51609005746E-06 2.55909910550E-06 2.60284333320E-06 
2.64733530741E-06 2.69258780984E-06 2.73861384063E-06 2.78542662219E-06 
2.83303960292E-06 2.88146646110E-06 2.93072110884E-06 2.98081769604E-06 
3.03177061449E-06 3.08359450196E-06 3.13630424647E-06 3.18991499049E-06 
3.24444213537E-06 3.29990134568E-06 3.35630855380E-06 3.41367996442E-06 
3.47203205923E-06 3.53138160167E-06 3.59174564171E-06 3.65314152076E-06 
3.71558687669E-06 3.77909964882E-06 3.84369808315E-06 3.90940073757E-06 
3.97622648716E-06 4.04419452969E-06 4.11332439104E-06 4.18363593089E-06 
4.25514934839E-06 4.32788518796E-06 4.40186434519E-06 4.47710807287E-06 
4.55363798706E-06 4.63147607333E-06 4.71064469305E-06 4.79116658984E-06 
4.87306489608E-06 4.95636313956E-06 5.04108525027E-06 5.12725556721E-06 
5.21489884547E-06 5.30404026325E-06 5.39470542916E-06 5.48692038954E-06 
5.58071163598E-06 5.67610611288E-06 5.77313122523E-06 5.87181484647E-06 
5.97218532648E-06 6.07427149978E-06 6.17810269373E-06 6.28370873703E-06 
6.39111996826E-06 6.50036724459E-06 6.61148195063E-06 6.72449600751E-06 
6.83944188196E-06 6.95635259571E-06 7.07526173495E-06 7.19620345998E-06 
7.31921251501E-06 7.44432423816E-06 7.57157457161E-06 7.70100007192E-06 
7.83263792053E-06 7.96652593445E-06 8.10270257711E-06 8.24120696942E-06 
8.38207890102E-06 8.52535884169E-06 8.67108795298E-06 8.81930810005E-06 
8.97006186368E-06 9.12339255250E-06 9.27934421545E-06 9.43796165444E-06 
9.59929043717E-06 9.76337691029E-06 9.93026821268E-06 1.01000122890E-05 
1.02726579033E-05 1.04482546535E-05 1.06268529851E-05 1.08085042059E-05 
1.09932605008E-05 1.11811749467E-05 1.13723015278E-05 1.15666951511E-05 
1.17644116621E-05 1.19655078609E-05 1.21700415185E-05 1.23780713936E-05 
1.25896572491E-05 1.28048598695E-05 1.30237410783E-05 1.32463637559E-05 
1.34727918575E-05 1.37030904315E-05 1.39373256382E-05 1.41755647689E-05 
1.44178762650E-05 1.46643297380E-05 1.49149959891E-05 1.51699470300E-05 
1.54292561031E-05 1.56929977029E-05 1.59612475972E-05 1.62340828492E-05 
1.65115818390E-05 1.67938242867E-05 1.70808912752E-05 1.73728652732E-05 
1.76698301593E-05 1.79718712456E-05 1.82790753027E-05 1.85915305845E-05 
1.89093268533E-05 1.92325554057E-05 1.95613090992E-05 1.98956823782E-05 
2.02357713018E-05 2.05816735708E-05 2.09334885565E-05 2.12913173283E-05 
2.16552626836E-05 2.20254291768E-05 2.24019231495E-05 2.27848527614E-05 
2.31743280205E-05 2.35704608156E-05 2.39733649480E-05 2.43831561642E-05 
2.47999521894E-05 2.52238727609E-05 2.56550396629E-05 2.60935767615E-05 
2.65396100397E-05 2.69932676342E-05 2.74546798723E-05 2.79239793086E-05 
2.84013007638E-05 2.88867813631E-05 2.93805605757E-05 2.98827802548E-05 
3.03935846785E-05 3.09131205909E-05 3.14415372446E-05 3.19789864435E-05 
3.25256225865E-05 3.30816027114E-05 3.36470865406E-05 3.42222365267E-05 
3.48072178991E-05 3.54021987117E-05 3.60073498909E-05 3.66228452849E-05 
3.72488617137E-05 3.78855790197E-05 3.85331801194E-05 3.91918510561E-05 
3.98617810532E-05 4.05431625687E-05 4.12361913502E-05 4.19410664916E-05 
4.26579904897E-05 4.33871693031E-05 4.41288124106E-05 4.48831328720E-05 
4.56503473889E-05 4.64306763673E-05 4.72243439805E-05 4.80315782339E-05 
4.88526110303E-05 4.96876782365E-05 5.05370197511E-05 5.14008795736E-05 
5.22795058742E-05 5.31731510651E-05 5.40820718734E-05 5.50065294144E-05 
5.59467892669E-05 5.69031215493E-05 5.78758009974E-05 5.88651070432E-05 
5.98713238952E-05 6.08947406199E-05 6.19356512253E-05 6.29943547448E-05 
6.40711553234E-05 6.51663623050E-05 6.62802903216E-05 6.74132593830E-05 
6.85655949693E-05 6.97376281242E-05 7.09296955502E-05 7.21421397052E-05 
7.33753089009E-05 7.46295574030E-05 7.59052455328E-05 7.72027397707E-05 
7.85224128619E-05 7.98646439229E-05 8.12298185505E-05 8.26183289332E-05 
8.40305739631E-05 8.54669593508E-05 8.69278977420E-05 8.84138088362E-05 
8.99251195067E-05 9.14622639240E-05 9.30256836798E-05 9.46158279144E-05 
9.62331534454E-05 9.78781248993E-05 9.95512148444E-05 1.01252903927E-04 
1.02983681010E-04 1.04744043311E-04 1.06534496549E-04 1.08355555087E-04 
1.10207742079E-04 1.12091589622E-04 1.14007638910E-04 1.15956440387E-04 
1.17938553905E-04 1.19954548887E-04 1.22005004490E-04 1.24090509770E-04 
1.26211663852E-04 1.28369076103E-04 1.30563366305E-04 1.32795164836E-04 
1.35065112849E-04 1.37373862454E-04 1.39722076912E-04 1.42110430819E-04 
1.44539610302E-04 1.47010313219E-04 1.49523249354E-04 1.52079140625E-04 
1.54678721290E-04 1.57322738159E-04 1.60011950806E-04 1.62747131790E-04 
1.65529066876E-04 1.68358555260E-04 1.71236409798E-04 1.74163457244E-04 
1.77140538481E-04 1.80168508766E-04 1.83248237978E-04 1.86380610862E-04 
1.89566527290E-04 1.92806902512E-04 1.96102667427E-04 1.99454768843E-04 
2.02864169754E-04 2.06331849616E-04 2.09858804626E-04 2.13446048009E-04 
2.17094610312E-04 2.20805539695E-04 2.24579902237E-04 2.28418782239E-04 
2.32323282537E-04 2.36294524818E-04 2.40333649944E-04 2.44441818277E-04 
2.48620210014E-04 2.52870025527E-04 2.57192485704E-04 2.61588832306E-04 
2.66060328317E-04 2.70608258313E-04 2.75233928824E-04 2.79938668717E-04 
2.84723829572E-04 2.89590786075E-04 2.94540936406E-04 2.99575702648E-04 
3.04696531193E-04 3.09904893155E-04 3.15202284796E-04 3.20590227954E-04 
3.26070270481E-04 3.31643986687E-04 3.37312977792E-04 3.43078872389E-04 
3.48943326907E-04 3.54908026091E-04 3.60974683482E-04 3.67145041915E-04 
3.73420874014E-04 3.79803982704E-04 3.86296201729E-04 3.92899396177E-04 
3.99615463019E-04 4.06446331651E-04 4.13393964448E-04 4.20460357332E-04 
4.27647540341E-04 4.34957578212E-04 4.42392570979E-04 4.49954654571E-04 
4.57646001428E-04 4.65468821125E-04 4.73425361008E-04 4.81517906835E-04 
4.89748783440E-04 4.98120355393E-04 5.06635027684E-04 5.15295246416E-04 
5.24103499500E-04 5.33062317378E-04 5.42174273745E-04 5.51441986289E-04 
5.60868117445E-04 5.70455375157E-04 5.80206513660E-04 5.90124334267E-04 
6.00211686176E-04 6.10471467288E-04 6.20906625039E-04 6.31520157248E-04 
6.42315112978E-04 6.53294593411E-04 6.64461752738E-04 6.75819799069E-04 
6.87371995351E-04 6.99121660306E-04 7.11072169385E-04 7.23226955739E-04 
7.35589511202E-04 7.48163387297E-04 7.60952196256E-04 7.73959612056E-04 
7.87189371476E-04 8.00645275169E-04 8.14331188756E-04 8.28251043937E-04 
8.42408839614E-04 8.56808643050E-04 8.71454591029E-04 8.86350891049E-04 
9.01501822528E-04 9.16911738036E-04 9.32585064544E-04 9.48526304694E-04 
9.64740038096E-04 9.81230922643E-04 9.98003695847E-04 1.01506317620E-03 
1.03241426456E-03 1.05006194556E-03 1.06801128904E-03 1.08626745150E-03 
1.10483567757E-03 1.12372130155E-03 1.14292974892E-03 1.16246653789E-03 
1.18233728100E-03 1.20254768674E-03 1.22310356115E-03 1.24401080955E-03 
1.26527543818E-03 1.28690355596E-03 1.30890137623E-03 1.33127521853E-03 
1.35403151045E-03 1.37717678942E-03 1.40071770462E-03 1.42466101892E-03 
1.44901361077E-03 1.47378247618E-03 1.49897473078E-03 1.52459761181E-03 
1.55065848024E-03 1.57716482284E-03 1.60412425437E-03 1.63154451976E-03 
1.65943349632E-03 1.68779919601E-03 1.71664976775E-03 1.74599349975E-03 
1.77583882190E-03 1.80619430817E-03 1.83706867912E-03 1.86847080435E-03 
1.90040970509E-03 1.93289455676E-03 1.96593469164E-03 1.99953960151E-03 
2.03371894041E-03 2.06848252741E-03 2.10384034941E-03 2.13980256404E-03 
2.17637950253E-03 2.21358167274E-03 2.25141976213E-03 2.28990464086E-03 
2.32904736487E-03 2.36885917912E-03 2.40935152078E-03 2.45053602250E-03 
2.49242451580E-03 2.53502903444E-03 2.57836181786E-03 2.62243531474E-03 
2.66726218654E-03 2.71285531115E-03 2.75922778660E-03 2.80639293480E-03 
2.85436430538E-03 2.90315567959E-03 2.95278107425E-03 3.00325474577E-03 
3.05459119427E-03 3.10680516770E-03 3.15991166615E-03 3.21392594606E-03 
3.26886352471E-03 3.32474018460E-03 3.38157197800E-03 3.43937523160E-03 
3.49816655114E-03 3.55796282625E-03 3.61878123522E-03 3.68063925001E-03 
3.74355464124E-03 3.80754548328E-03 3.87263015945E-03 3.93882736734E-03 
4.00615612410E-03 4.07463577199E-03 4.14428598390E-03 4.21512676897E-03 
4.28717847840E-03 4.36046181124E-03 4.43499782039E-03 4.51080791858E-03 
4.58791388461E-03 4.66633786951E-03 4.74610240299E-03 4.82723039984E-03 
4.90974516658E-03 4.99367040809E-03 5.07903023448E-03 5.16584916798E-03 
5.25415214998E-03 5.34396454821E-03 5.43531216406E-03 5.52822123991E-03 
5.62271846674E-03 5.71883099179E-03 5.81658642631E-03 5.91601285357E-03 
6.01713883683E-03 6.11999342764E-03 6.22460617414E-03 6.33100712955E-03 
6.43922686079E-03 6.54929645730E-03 6.66124753995E-03 6.77511227012E-03 
6.89092335894E-03 7.00871407669E-03 7.12851826238E-03 7.25037033342E-03 
7.37430529555E-03 7.50035875290E-03 7.62856691818E-03 7.75896662311E-03 
7.89159532901E-03 8.02649113755E-03 8.16369280166E-03 8.30323973675E-03 
8.44517203193E-03 8.58953046162E-03 8.73635649720E-03 8.88569231894E-03 
9.03758082814E-03 9.19206565942E-03 9.34919119330E-03 9.50900256889E-03 
9.67154569691E-03 9.83686727286E-03 1.00050147904E-02 1.01760365551E-02 
1.03499816982E-02 1.05269001908E-02 1.07068428581E-02 1.08898613941E-02 
1.10760083766E-02 1.12653372820E-02 1.14579025008E-02 1.16537593532E-02 
1.18529641052E-02 1.20555739844E-02 1.22616471968E-02 1.24712429431E-02 
1.26844214361E-02 1.29012439180E-02 1.31217726777E-02 1.33460710687E-02 
1.35742035276E-02 1.38062355926E-02 1.40422339219E-02 1.42822663132E-02 
1.45264017233E-02 1.47747102876E-02 1.50272633401E-02 1.52841334347E-02 
1.55453943650E-02 1.58111211863E-02 1.60813902368E-02 1.63562791595E-02 
1.66358669247E-02 1.69202338525E-02 1.72094616361E-02 1.75036333650E-02 
1.78028335491E-02 1.81071481427E-02 1.84166645696E-02 1.87314717479E-02 
1.90516601155E-02 1.93773216565E-02 1.97085499269E-02 2.00454400824E-02 
2.03880889049E-02 2.07365948309E-02 2.10910579792E-02 2.14515801804E-02 
2.18182650055E-02 2.21912177959E-02 2.25705456937E-02 2.29563576726E-02 
2.33487645688E-02 2.37478791133E-02 2.41538159638E-02 2.45666917384E-02 
2.49866250480E-02 2.54137365315E-02 2.58481488898E-02 2.62899869210E-02 
2.67393775568E-02 2.71964498983E-02 2.76613352536E-02 2.81341671752E-02 
2.86150814986E-02 2.91042163812E-02 2.96017123420E-02 3.01077123020E-02 
3.06223616250E-02 3.11458081600E-02 3.16782022830E-02 3.22196969405E-02 
3.27704476935E-02 3.33306127619E-02 3.39003530704E-02 3.44798322944E-02 
3.50692169069E-02 3.56686762269E-02 3.62783824673E-02 3.68985107850E-02 
3.75292393308E-02 3.81707493008E-02 3.88232249885E-02 3.94868538375E-02 
4.01618264954E-02 4.08483368690E-02 4.15465821792E-02 4.22567630186E-02 
4.29790834083E-02 4.37137508570E-02 4.44609764204E-02 4.52209747620E-02 
4.59939642145E-02 4.67801668430E-02 4.75798085081E-02 4.83931189315E-02 
4.92203317616E-02 5.00616846405E-02 5.09174192726E-02 5.17877814940E-02 
5.26730213430E-02 5.35733931316E-02 5.44891555195E-02 5.54205715873E-02 
5.63679089128E-02 5.73314396479E-02 5.83114405961E-02 5.93081932929E-02 
6.03219840859E-02 6.13531042177E-02 6.24018499091E-02 6.34685224444E-02 
6.45534282580E-02 6.56568790225E-02 6.67791917377E-02 6.79206888225E-02 
6.90816982069E-02 7.02625534264E-02 7.14635937179E-02 7.26851641169E-02 
7.39276155571E-02 7.51913049707E-02 7.64765953911E-02 7.77838560576E-02 
7.91134625207E-02 8.04657967506E-02 8.18412472469E-02 8.32402091499E-02 
8.46630843541E-02 8.61102816242E-02 8.75822167119E-02 8.90793124757E-02 
9.06019990021E-02 9.21507137297E-02 9.37259015741E-02 9.53280150564E-02 
9.69575144327E-02 9.86148678267E-02 1.00300551364E-01 1.02015049309E-01 
1.03758854203E-01 1.05532467008E-01 1.07336397249E-01 1.09171163160E-01 
1.11037291834E-01 1.12935319372E-01 1.14865791043E-01 1.16829261433E-01 