<PP_INFO>
Generated using the Fritz-Haber code
Author: Sit and Marzari   Generation date: JCP 122 204510 (2005)
Automatically converted from Fritz-Haber format
    0        The Pseudo was generated with a Non-Relativistic Calculation
nl pn  l   occ               Rcut            Rcut US             E pseu
0S  0  0  2.00      0.00000000000      0.00000000000      0.00000000000
0P  0  1  4.00      0.00000000000      0.00000000000      0.00000000000
0D  0  2  0.00      0.00000000000      0.00000000000      0.00000000000
</PP_INFO>


<PP_HEADER>
   0                   Version Number
  O                    Element
   NC                  Norm - Conserving pseudopotential
    F                  Nonlinear Core Correction
SLA  PW   PBE  PBE     PBE  Exchange-Correlation functional
    6.00000000000      Z valence
    0.00000000000      Total energy
  0.0000000  0.0000000 Suggested cutoff for wfc and rho
    1                  Max angular momentum component
  473                  Number of points in mesh
    3    2             Number of Wavefunctions, Number of Projectors
 Wavefunctions         nl  l   occ
                       0S  0  2.00
                       0P  1  4.00
                       0D  2  0.00
</PP_HEADER>


<PP_MESH>
  <PP_R>
  7.81252980657E-04  8.00550019883E-04  8.20323698215E-04  8.40585788696E-04
  8.61348355161E-04  8.82623759425E-04  9.04424668643E-04  9.26764062846E-04
  9.49655242677E-04  9.73111837305E-04  9.97147812540E-04  1.02177747915E-03
  1.04701550138E-03  1.07287690569E-03  1.09937708969E-03  1.12653183130E-03
  1.15435729818E-03  1.18287005732E-03  1.21208708491E-03  1.24202577648E-03
  1.27270395720E-03  1.30413989254E-03  1.33635229912E-03  1.36936035589E-03
  1.40318371549E-03  1.43784251599E-03  1.47335739289E-03  1.50974949136E-03
  1.54704047889E-03  1.58525255813E-03  1.62440848016E-03  1.66453155800E-03
  1.70564568052E-03  1.74777532664E-03  1.79094557990E-03  1.83518214342E-03
  1.88051135520E-03  1.92696020376E-03  1.97455634426E-03  2.02332811496E-03
  2.07330455405E-03  2.12451541698E-03  2.17699119416E-03  2.23076312913E-03
  2.28586323712E-03  2.34232432418E-03  2.40018000663E-03  2.45946473114E-03
  2.52021379523E-03  2.58246336825E-03  2.64625051294E-03  2.71161320750E-03
  2.77859036819E-03  2.84722187253E-03  2.91754858298E-03  2.98961237133E-03
  3.06345614361E-03  3.13912386563E-03  3.21666058917E-03  3.29611247876E-03
  3.37752683924E-03  3.46095214387E-03  3.54643806320E-03  3.63403549464E-03
  3.72379659281E-03  3.81577480051E-03  3.91002488060E-03  4.00660294861E-03
  4.10556650609E-03  4.20697447492E-03  4.31088723234E-03  4.41736664692E-03
  4.52647611539E-03  4.63828060039E-03  4.75284666913E-03  4.87024253305E-03
  4.99053808843E-03  5.11380495798E-03  5.24011653350E-03  5.36954801958E-03
  5.50217647838E-03  5.63808087549E-03  5.77734212698E-03  5.92004314752E-03
  6.06626889983E-03  6.21610644517E-03  6.36964499526E-03  6.52697596534E-03
  6.68819302863E-03  6.85339217208E-03  7.02267175353E-03  7.19613256028E-03
  7.37387786907E-03  7.55601350759E-03  7.74264791752E-03  7.93389221901E-03
  8.12986027693E-03  8.33066876860E-03  8.53643725331E-03  8.74728824346E-03
  8.96334727751E-03  9.18474299476E-03  9.41160721190E-03  9.64407500152E-03
  9.88228477250E-03  1.01263783524E-02  1.03765010721E-02  1.06328018520E-02
  1.08954332908E-02  1.11645517567E-02  1.14403174799E-02  1.17228946484E-02
  1.20124515057E-02  1.23091604510E-02  1.26131981417E-02  1.29247455985E-02
  1.32439883137E-02  1.35711163610E-02  1.39063245090E-02  1.42498123371E-02
  1.46017843544E-02  1.49624501214E-02  1.53320243746E-02  1.57107271547E-02
  1.60987839374E-02  1.64964257677E-02  1.69038893973E-02  1.73214174258E-02
  1.77492584450E-02  1.81876671870E-02  1.86369046758E-02  1.90972383826E-02
  1.95689423854E-02  2.00522975318E-02  2.05475916063E-02  2.10551195020E-02
  2.15751833955E-02  2.21080929274E-02  2.26541653867E-02  2.32137258990E-02
  2.37871076208E-02  2.43746519377E-02  2.49767086673E-02  2.55936362680E-02
  2.62258020520E-02  2.68735824041E-02  2.75373630061E-02  2.82175390659E-02
  2.89145155532E-02  2.96287074407E-02  3.03605399506E-02  3.11104488083E-02
  3.18788805018E-02  3.26662925473E-02  3.34731537616E-02  3.42999445414E-02
  3.51471571494E-02  3.60152960071E-02  3.69048779952E-02  3.78164327616E-02
  3.87505030365E-02  3.97076449555E-02  4.06884283908E-02  4.16934372908E-02
  4.27232700272E-02  4.37785397515E-02  4.48598747605E-02  4.59679188696E-02
  4.71033317966E-02  4.82667895547E-02  4.94589848543E-02  5.06806275160E-02
  5.19324448932E-02  5.32151823048E-02  5.45296034791E-02  5.58764910090E-02
  5.72566468170E-02  5.86708926336E-02  6.01200704858E-02  6.16050431990E-02
  6.31266949105E-02  6.46859315957E-02  6.62836816079E-02  6.79208962306E-02
  6.95985502444E-02  7.13176425070E-02  7.30791965477E-02  7.48842611776E-02
  7.67339111132E-02  7.86292476166E-02  8.05713991515E-02  8.25615220546E-02
  8.46008012242E-02  8.66904508257E-02  8.88317150148E-02  9.10258686776E-02
  9.32742181904E-02  9.55781021969E-02  9.79388924056E-02  1.00357994406E-01
  1.02836848507E-01  1.05376930591E-01  1.07979752997E-01  1.10646865419E-01
  1.13379855827E-01  1.16180351415E-01  1.19050019568E-01  1.21990568858E-01
  1.25003750056E-01  1.28091357180E-01  1.31255228557E-01  1.34497247924E-01
  1.37819345546E-01  1.41223499364E-01  1.44711736176E-01  1.48286132842E-01
  1.51948817521E-01  1.55701970935E-01  1.59547827674E-01  1.63488677521E-01
  1.67526866816E-01  1.71664799854E-01  1.75904940319E-01  1.80249812745E-01
  1.84702004024E-01  1.89264164943E-01  1.93939011767E-01  1.98729327849E-01
  2.03637965294E-01  2.08667846653E-01  2.13821966665E-01  2.19103394039E-01
  2.24515273281E-01  2.30060826569E-01  2.35743355666E-01  2.41566243890E-01
  2.47532958129E-01  2.53647050902E-01  2.59912162475E-01  2.66332023031E-01
  2.72910454887E-01  2.79651374772E-01  2.86558796161E-01  2.93636831659E-01
  3.00889695455E-01  3.08321705827E-01  3.15937287718E-01  3.23740975364E-01
  3.31737415001E-01  3.39931367623E-01  3.48327711826E-01  3.56931446704E-01
  3.65747694832E-01  3.74781705311E-01  3.84038856896E-01  3.93524661199E-01
  4.03244765969E-01  4.13204958453E-01  4.23411168847E-01  4.33869473822E-01
  4.44586100142E-01  4.55567428375E-01  4.66819996689E-01  4.78350504745E-01
  4.90165817687E-01  5.02272970229E-01  5.14679170844E-01  5.27391806052E-01
  5.40418444824E-01  5.53766843085E-01  5.67444948330E-01  5.81460904362E-01
  5.95823056132E-01  6.10539954718E-01  6.25620362405E-01  6.41073257911E-01
  6.56907841727E-01  6.73133541601E-01  6.89760018143E-01  7.06797170584E-01
  7.24255142666E-01  7.42144328683E-01  7.60475379670E-01  7.79259209741E-01
  7.98507002594E-01  8.18230218162E-01  8.38440599443E-01  8.59150179485E-01
  8.80371288555E-01  9.02116561481E-01  9.24398945170E-01  9.47231706320E-01
  9.70628439318E-01  9.94603074335E-01  1.01916988562E+00  1.04434349999E+00
  1.07013890555E+00  1.09657146062E+00  1.12365690287E+00  1.15141135869E+00
  1.17985135278E+00  1.20899381802E+00  1.23885610554E+00  1.26945599501E+00
  1.30081170531E+00  1.33294190529E+00  1.36586572494E+00  1.39960276674E+00
  1.43417311740E+00  1.46959735972E+00  1.50589658494E+00  1.54309240523E+00
  1.58120696659E+00  1.62026296204E+00  1.66028364511E+00  1.70129284369E+00
  1.74331497423E+00  1.78637505627E+00  1.83049872733E+00  1.87571225818E+00
  1.92204256849E+00  1.96951724283E+00  2.01816454714E+00  2.06801344551E+00
  2.11909361744E+00  2.17143547555E+00  2.22507018362E+00  2.28002967520E+00
  2.33634667260E+00  2.39405470636E+00  2.45318813525E+00  2.51378216669E+00
  2.57587287774E+00  2.63949723655E+00  2.70469312440E+00  2.77149935824E+00
  2.83995571380E+00  2.91010294929E+00  2.98198282963E+00  3.05563815134E+00
  3.13111276805E+00  3.20845161654E+00  3.28770074356E+00  3.36890733321E+00
  3.45211973504E+00  3.53738749284E+00  3.62476137415E+00  3.71429340047E+00
  3.80603687821E+00  3.90004643050E+00  3.99637802963E+00  4.09508903042E+00
  4.19623820439E+00  4.29988577469E+00  4.40609345199E+00  4.51492447123E+00
  4.62644362928E+00  4.74071732346E+00  4.85781359114E+00  4.97780215021E+00
  5.10075444060E+00  5.22674366683E+00  5.35584484156E+00  5.48813483027E+00
  5.62369239705E+00  5.76259825145E+00  5.90493509656E+00  6.05078767825E+00
  6.20024283562E+00  6.35338955272E+00  6.51031901149E+00  6.67112464608E+00
  6.83590219850E+00  7.00474977558E+00  7.17776790739E+00  7.35505960712E+00
  7.53673043240E+00  7.72288854813E+00  7.91364479091E+00  8.10911273500E+00
  8.30940875999E+00  8.51465212002E+00  8.72496501484E+00  8.94047266256E+00
  9.16130337417E+00  9.38758862996E+00  9.61946315782E+00  9.85706501341E+00
  1.01005356624E+01  1.03500200646E+01  1.06056667605E+01  1.08676279595E+01
  1.11360596304E+01  1.14111215948E+01  1.16929776215E+01  1.19817955248E+01
  1.22777472638E+01  1.25810090451E+01  1.28917614276E+01  1.32101894299E+01
  1.35364826409E+01  1.38708353319E+01  1.42134465733E+01  1.45645203520E+01
  1.49242656938E+01  1.52928967872E+01  1.56706331114E+01  1.60576995666E+01
  1.64543266081E+01  1.68607503836E+01  1.72772128734E+01  1.77039620351E+01
  1.81412519505E+01  1.85893429776E+01  1.90485019049E+01  1.95190021111E+01
  2.00011237269E+01  2.04951538025E+01  2.10013864783E+01  2.15201231599E+01
  2.20516726977E+01  2.25963515707E+01  2.31544840750E+01  2.37264025169E+01
  2.43124474107E+01  2.49129676813E+01  2.55283208722E+01  2.61588733583E+01
  2.68050005640E+01  2.74670871866E+01  2.81455274255E+01  2.88407252170E+01
  2.95530944745E+01  3.02830593354E+01  3.10310544130E+01  3.17975250557E+01
  3.25829276122E+01  3.33877297029E+01  3.42124104986E+01  3.50574610056E+01
  3.59233843581E+01  3.68106961179E+01  3.77199245810E+01  3.86516110926E+01
  3.96063103691E+01  4.05845908284E+01  4.15870349286E+01  4.26142395142E+01
  4.36668161723E+01  4.47453915959E+01  4.58506079575E+01  4.69831232914E+01
  4.81436118855E+01  4.93327646823E+01  5.05512896912E+01  5.17999124091E+01
  5.30793762529E+01  5.43904430021E+01  5.57338932520E+01  5.71105268789E+01
  5.85211635161E+01  5.99666430417E+01  6.14478260793E+01  6.29655945097E+01
  6.45208519963E+01  6.61145245232E+01  6.77475609464E+01  6.94209335586E+01
  7.11356386683E+01  7.28926971932E+01  7.46931552674E+01  7.65380848648E+01
  7.84285844372E+01
  </PP_R>
  <PP_RAB>
  1.90625727280E-05  1.95334204851E-05  2.00158982365E-05  2.05102932442E-05
  2.10168998659E-05  2.15360197300E-05  2.20679619149E-05  2.26130431334E-05
  2.31715879213E-05  2.37439288302E-05  2.43304066260E-05  2.49313704913E-05
  2.55471782337E-05  2.61781964989E-05  2.68248009883E-05  2.74873766837E-05
  2.81663180755E-05  2.88620293985E-05  2.95749248718E-05  3.03054289460E-05
  3.10539765556E-05  3.18210133779E-05  3.26069960986E-05  3.34123926838E-05
  3.42376826580E-05  3.50833573902E-05  3.59499203865E-05  3.68378875892E-05
  3.77477876848E-05  3.86801624183E-05  3.96355669158E-05  4.06145700153E-05
  4.16177546048E-05  4.26457179700E-05  4.36990721496E-05  4.47784442996E-05
  4.58844770668E-05  4.70178289717E-05  4.81791748000E-05  4.93692060050E-05
  5.05886311188E-05  5.18381761743E-05  5.31185851375E-05  5.44306203507E-05
  5.57750629858E-05  5.71527135099E-05  5.85643921617E-05  6.00109394399E-05
  6.14932166037E-05  6.30121061852E-05  6.45685125157E-05  6.61633622629E-05
  6.77976049839E-05  6.94722136896E-05  7.11881854246E-05  7.29465418604E-05
  7.47483299041E-05  7.65946223215E-05  7.84865183756E-05  8.04251444817E-05
  8.24116548775E-05  8.44472323104E-05  8.65330887420E-05  8.86704660693E-05
  9.08606368645E-05  9.31049051324E-05  9.54046070867E-05  9.77611119460E-05
  1.00175822749E-04  1.02650177188E-04  1.05185648469E-04  1.07783746185E-04
  1.10446017216E-04  1.13174046649E-04  1.15969458727E-04  1.18833917806E-04
  1.21769129358E-04  1.24776840975E-04  1.27858843417E-04  1.31016971678E-04
  1.34253106072E-04  1.37569173362E-04  1.40967147898E-04  1.44449052800E-04
  1.48016961156E-04  1.51672997262E-04  1.55419337884E-04  1.59258213554E-04
  1.63191909899E-04  1.67222768999E-04  1.71353190786E-04  1.75585634471E-04
  1.79922620005E-04  1.84366729585E-04  1.88920609187E-04  1.93586970144E-04
  1.98368590757E-04  2.03268317954E-04  2.08289068981E-04  2.13433833140E-04
  2.18705673571E-04  2.24107729072E-04  2.29643215970E-04  2.35315430037E-04
  2.41127748449E-04  2.47083631800E-04  2.53186626160E-04  2.59440365189E-04
  2.65848572297E-04  2.72415062863E-04  2.79143746509E-04  2.86038629420E-04
  2.93103816739E-04  3.00343515005E-04  3.07762034657E-04  3.15363792604E-04
  3.23153314855E-04  3.31135239209E-04  3.39314318019E-04  3.47695421025E-04
  3.56283538248E-04  3.65083782961E-04  3.74101394740E-04  3.83341742575E-04
  3.92810328074E-04  4.02512788732E-04  4.12454901294E-04  4.22642585189E-04
  4.33081906058E-04  4.43779079363E-04  4.54740474089E-04  4.65972616536E-04
  4.77482194205E-04  4.89276059776E-04  5.01361235195E-04  5.13744915848E-04
  5.26434474849E-04  5.39437467430E-04  5.52761635435E-04  5.66414911935E-04
  5.80405425948E-04  5.94741507279E-04  6.09431691483E-04  6.24484724939E-04
  6.39909570068E-04  6.55715410660E-04  6.71911657348E-04  6.88507953207E-04
  7.05514179499E-04  7.22940461553E-04  7.40797174794E-04  7.59094950923E-04
  7.77844684244E-04  7.97057538153E-04  8.16744951782E-04  8.36918646811E-04
  8.57590634446E-04  8.78773222573E-04  9.00479023084E-04  9.22720959384E-04
  9.45512274091E-04  9.68866536914E-04  9.92797652737E-04  1.01731986990E-03
  1.04244778866E-03  1.06819636994E-03  1.09458094416E-03  1.12161722042E-03
  1.14932129584E-03  1.17770966513E-03  1.20679923044E-03  1.23660731139E-03
  1.26715165539E-03  1.29845044824E-03  1.33052232489E-03  1.36338638062E-03
  1.39706218234E-03  1.43156978026E-03  1.46692971985E-03  1.50316305406E-03
  1.54029135582E-03  1.57833673094E-03  1.61732183123E-03  1.65726986803E-03
  1.69820462596E-03  1.74015047717E-03  1.78313239576E-03  1.82717597273E-03
  1.87230743116E-03  1.91855364185E-03  1.96594213930E-03  2.01450113813E-03
  2.06425954987E-03  2.11524700015E-03  2.16749384636E-03  2.22103119573E-03
  2.27589092385E-03  2.33210569360E-03  2.38970897470E-03  2.44873506351E-03
  2.50921910356E-03  2.57119710642E-03  2.63470597314E-03  2.69978351622E-03
  2.76646848217E-03  2.83480057452E-03  2.90482047746E-03  2.97656988013E-03
  3.05009150137E-03  3.12542911518E-03  3.20262757679E-03  3.28173284935E-03
  3.36279203132E-03  3.44585338448E-03  3.53096636270E-03  3.61818164135E-03
  3.70755114750E-03  3.79912809082E-03  3.89296699525E-03  3.98912373151E-03
  4.08765555030E-03  4.18862111645E-03  4.29208054379E-03  4.39809543098E-03
  4.50672889818E-03  4.61804562462E-03  4.73211188711E-03  4.84899559952E-03
  4.96876635317E-03  5.09149545833E-03  5.21725598662E-03  5.34612281455E-03
  5.47817266807E-03  5.61348416828E-03  5.75213787825E-03  5.89421635093E-03
  6.03980417836E-03  6.18898804201E-03  6.34185676440E-03  6.49850136195E-03
  6.65901509924E-03  6.82349354445E-03  6.99203462633E-03  7.16473869248E-03
  7.34170856909E-03  7.52304962218E-03  7.70886982031E-03  7.89927979889E-03
  8.09439292601E-03  8.29432537001E-03  8.49919616856E-03  8.70912729959E-03
  8.92424375390E-03  9.14467360959E-03  9.37054810827E-03  9.60200173326E-03
  9.83917228964E-03  1.00822009863E-02  1.03312325199E-02  1.05864151612E-02
  1.08479008435E-02  1.11158452523E-02  1.13904079192E-02  1.16717523158E-02
  1.19600459516E-02  1.22554604736E-02  1.25581717686E-02  1.28683600677E-02
  1.31862100537E-02  1.35119109713E-02  1.38456567393E-02  1.41876460664E-02
  1.45380825696E-02  1.48971748951E-02  1.52651368427E-02  1.56421874930E-02
  1.60285513381E-02  1.64244584151E-02  1.68301444427E-02  1.72458509623E-02
  1.76718254811E-02  1.81083216199E-02  1.85555992639E-02  1.90139247177E-02
  1.94835708633E-02  1.99648173232E-02  2.04579506264E-02  2.09632643794E-02
  2.14810594407E-02  2.20116441001E-02  2.25553342621E-02  2.31124536342E-02
  2.36833339194E-02  2.42683150138E-02  2.48677452091E-02  2.54819813997E-02
  2.61113892954E-02  2.67563436392E-02  2.74172284301E-02  2.80944371520E-02
  2.87883730078E-02  2.94994491597E-02  3.02280889751E-02  3.09747262784E-02
  3.17398056096E-02  3.25237824891E-02  3.33271236884E-02  3.41503075086E-02
  3.49938240645E-02  3.58581755772E-02  3.67438766725E-02  3.76514546876E-02
  3.85814499849E-02  3.95344162738E-02  4.05109209407E-02  4.15115453861E-02
  4.25368853713E-02  4.35875513730E-02  4.46641689469E-02  4.57673790996E-02
  4.68978386711E-02  4.80562207251E-02  4.92432149502E-02  5.04595280703E-02
  5.17058842656E-02  5.29830256034E-02  5.42917124803E-02  5.56327240749E-02
  5.70068588114E-02  5.84149348352E-02  5.98577905001E-02  6.13362848673E-02
  6.28512982168E-02  6.44037325717E-02  6.59945122353E-02  6.76245843410E-02
  6.92949194168E-02  7.10065119627E-02  7.27603810429E-02  7.45575708928E-02
  7.63991515405E-02  7.82862194437E-02  8.02198981429E-02  8.22013389303E-02
  8.42317215349E-02  8.63122548254E-02  8.84441775293E-02  9.06287589714E-02
  9.28672998283E-02  9.51611329041E-02  9.75116239229E-02  9.99201723424E-02
  1.02388212187E-01  1.04917212902E-01  1.07508680228E-01  1.10164157098E-01
  1.12885224554E-01  1.15673502692E-01  1.18530651624E-01  1.21458372465E-01
  1.24458408351E-01  1.27532545471E-01  1.30682614134E-01  1.33910489859E-01
  1.37218094488E-01  1.40607397335E-01  1.44080416356E-01  1.47639219349E-01
  1.51285925189E-01  1.55022705086E-01  1.58851783880E-01  1.62775441364E-01
  1.66796013644E-01  1.70915894524E-01  1.75137536940E-01  1.79463454414E-01
  1.83896222551E-01  1.88438480574E-01  1.93092932898E-01  1.97862350734E-01
  2.02749573744E-01  2.07757511728E-01  2.12889146362E-01  2.18147532966E-01
  2.23535802330E-01  2.29057162571E-01  2.34714901051E-01  2.40512386327E-01
  2.46453070162E-01  2.52540489577E-01  2.58778268957E-01  2.65170122211E-01
  2.71719854982E-01  2.78431366912E-01  2.85308653965E-01  2.92355810806E-01
  2.99577033238E-01  3.06976620701E-01  3.14558978833E-01  3.22328622090E-01
  3.30290176437E-01  3.38448382099E-01  3.46808096388E-01  3.55374296589E-01
  3.64152082928E-01  3.73146681607E-01  3.82363447918E-01  3.91807869425E-01
  4.01485569238E-01  4.11402309359E-01  4.21563994112E-01  4.31976673656E-01
  4.42646547592E-01  4.53579968652E-01  4.64783446481E-01  4.76263651511E-01
  4.88027418936E-01  5.00081752781E-01  5.12433830070E-01  5.25091005101E-01
  5.38060813823E-01  5.51350978324E-01  5.64969411430E-01  5.78924221413E-01
  5.93223716821E-01  6.07876411424E-01  6.22891029283E-01  6.38276509944E-01
  6.54042013761E-01  6.70196927352E-01  6.86750869182E-01  7.03713695294E-01
  7.21095505179E-01  7.38906647784E-01  7.57157727676E-01  7.75859611359E-01
  7.95023433738E-01  8.14660604751E-01  8.34782816166E-01  8.55402048537E-01
  8.76530578339E-01  8.98180985276E-01  9.20366159777E-01  9.43099310660E-01
  9.66393973006E-01  9.90264016214E-01  1.01472365226E+00  1.03978744415E+00
  1.06547031460E+00  1.09178755494E+00  1.11875483416E+00  1.14638820831E+00
  1.17470413001E+00  1.20371945825E+00  1.23345146847E+00  1.26391786278E+00
  1.29513678057E+00  1.32712680925E+00  1.35990699535E+00  1.39349685585E+00
  1.42791638979E+00  1.46318609022E+00  1.49932695633E+00  1.53636050604E+00
  1.57430878871E+00  1.61319439837E+00  1.65304048709E+00  1.69387077883E+00
  1.73570958351E+00  1.77858181151E+00  1.82251298852E+00  1.86752927070E+00
  1.91365746027E+00
  </PP_RAB>
</PP_MESH>


<PP_LOCAL>
 -2.31302837109E+01 -2.31302837109E+01 -2.31303141070E+01 -2.31303459529E+01
 -2.31303793227E+01 -2.31304142941E+01 -2.31304509485E+01 -2.31304893719E+01
 -2.31305296537E+01 -2.31305718884E+01 -2.31306161748E+01 -2.31306626167E+01
 -2.31307113232E+01 -2.31307624083E+01 -2.31308159923E+01 -2.31308722010E+01
 -2.31309311668E+01 -2.31309930281E+01 -2.31310579308E+01 -2.31311260273E+01
 -2.31311974784E+01 -2.31312724521E+01 -2.31313511254E+01 -2.31314336831E+01
 -2.31315203202E+01 -2.31316112410E+01 -2.31317066593E+01 -2.31318068004E+01
 -2.31319119002E+01 -2.31320222066E+01 -2.31321379794E+01 -2.31322594912E+01
 -2.31323870286E+01 -2.31325208917E+01 -2.31326613958E+01 -2.31328088718E+01
 -2.31329636665E+01 -2.31331261442E+01 -2.31332966871E+01 -2.31334756960E+01
 -2.31336635914E+01 -2.31338608146E+01 -2.31340678285E+01 -2.31342851187E+01
 -2.31345131947E+01 -2.31347525908E+01 -2.31350038674E+01 -2.31352676124E+01
 -2.31355444423E+01 -2.31358350036E+01 -2.31361399746E+01 -2.31364600660E+01
 -2.31367960234E+01 -2.31371486286E+01 -2.31375187008E+01 -2.31379070993E+01
 -2.31383147244E+01 -2.31387425200E+01 -2.31391914753E+01 -2.31396626268E+01
 -2.31401570607E+01 -2.31406759152E+01 -2.31412203823E+01 -2.31417917109E+01
 -2.31423912091E+01 -2.31430202467E+01 -2.31436802579E+01 -2.31443727444E+01
 -2.31450992782E+01 -2.31458615044E+01 -2.31466611447E+01 -2.31475000003E+01
 -2.31483799558E+01 -2.31493029820E+01 -2.31502711393E+01 -2.31512865827E+01
 -2.31523515638E+01 -2.31534684359E+01 -2.31546396574E+01 -2.31558677959E+01
 -2.31571555323E+01 -2.31585056650E+01 -2.31599211146E+01 -2.31614049273E+01
 -2.31629602801E+01 -2.31645904844E+01 -2.31662989915E+01 -2.31680893961E+01
 -2.31699654404E+01 -2.31719310196E+01 -2.31739901857E+01 -2.31761471510E+01
 -2.31784062928E+01 -2.31807721577E+01 -2.31832494640E+01 -2.31858431065E+01
 -2.31885581587E+01 -2.31913998760E+01 -2.31943736981E+01 -2.31974852510E+01
 -2.32007403479E+01 -2.32041449909E+01 -2.32077053699E+01 -2.32114278629E+01
 -2.32153190337E+01 -2.32193856302E+01 -2.32236345797E+01 -2.32280729846E+01
 -2.32327081166E+01 -2.32375474078E+01 -2.32425984429E+01 -2.32478689470E+01
 -2.32533667728E+01 -2.32590998861E+01 -2.32650763475E+01 -2.32713042941E+01
 -2.32777919148E+01 -2.32845474276E+01 -2.32915790497E+01 -2.32988949664E+01
 -2.33065032970E+01 -2.33144120556E+01 -2.33226291096E+01 -2.33311621332E+01
 -2.33400185582E+01 -2.33492055185E+01 -2.33587297932E+01 -2.33685977421E+01
 -2.33788152396E+01 -2.33893876018E+01 -2.34003195112E+01 -2.34116149355E+01
 -2.34232770428E+01 -2.34353081130E+01 -2.34477094455E+01 -2.34604812624E+01
 -2.34736226104E+01 -2.34871312594E+01 -2.35010035982E+01 -2.35152345324E+01
 -2.35298173784E+01 -2.35447437603E+01 -2.35600035081E+01 -2.35755845582E+01
 -2.35914728594E+01 -2.36076522830E+01 -2.36241045412E+01 -2.36408091130E+01
 -2.36577431809E+01 -2.36748815790E+01 -2.36921967552E+01 -2.37096587473E+01
 -2.37272351770E+01 -2.37448912615E+01 -2.37625898448E+01 -2.37802914505E+01
 -2.37979543566E+01 -2.38155346930E+01 -2.38329865635E+01 -2.38502621921E+01
 -2.38673120934E+01 -2.38840852670E+01 -2.39005294165E+01 -2.39165911902E+01
 -2.39322164436E+01 -2.39473505215E+01 -2.39619385580E+01 -2.39759257896E+01
 -2.39892578843E+01 -2.40018812746E+01 -2.40137435006E+01 -2.40247935515E+01
 -2.40349822075E+01 -2.40442623741E+01 -2.40525894055E+01 -2.40599214159E+01
 -2.40662195700E+01 -2.40714483529E+01 -2.40755758126E+01 -2.40785737726E+01
 -2.40804180129E+01 -2.40810884142E+01 -2.40805690627E+01 -2.40788483161E+01
 -2.40759188263E+01 -2.40717775187E+01 -2.40664255277E+01 -2.40598680879E+01
 -2.40521143813E+01 -2.40431773430E+01 -2.40330734233E+01 -2.40218223145E+01
 -2.40094466377E+01 -2.39959715999E+01 -2.39814246206E+01 -2.39658349348E+01
 -2.39492331753E+01 -2.39316509438E+01 -2.39131203701E+01 -2.38936736722E+01
 -2.38733427186E+01 -2.38521586036E+01 -2.38301512370E+01 -2.38073489595E+01
 -2.37837781880E+01 -2.37594630956E+01 -2.37344253338E+01 -2.37086837992E+01
 -2.36822544546E+01 -2.36551501981E+01 -2.36273807949E+01 -2.35989528623E+01
 -2.35698699165E+01 -2.35401324780E+01 -2.35097382335E+01 -2.34786822539E+01
 -2.34469572632E+01 -2.34145539568E+01 -2.33814613591E+01 -2.33476672187E+01
 -2.33131584324E+01 -2.32779214877E+01 -2.32419429172E+01 -2.32052097571E+01
 -2.31677099937E+01 -2.31294329946E+01 -2.30903699081E+01 -2.30505140249E+01
 -2.30098610873E+01 -2.29684095380E+01 -2.29261606989E+01 -2.28831188681E+01
 -2.28392913273E+01 -2.27946882486E+01 -2.27493224913E+01 -2.27032092743E+01
 -2.26563657107E+01 -2.26088101816E+01 -2.25605615245E+01 -2.25116379955E+01
 -2.24620559591E+01 -2.24118282366E+01 -2.23609620324E+01 -2.23094563293E+01
 -2.22572986313E+01 -2.22044609065E+01 -2.21508945790E+01 -2.20965244217E+01
 -2.20412412338E+01 -2.19848932617E+01 -2.19272764455E+01 -2.18681237720E+01
 -2.18070942915E+01 -2.17437627026E+01 -2.16776108080E+01 -2.16080225232E+01
 -2.15342843815E+01 -2.14555934798E+01 -2.13710744058E+01 -2.12798057561E+01
 -2.11808554085E+01 -2.10733219082E+01 -2.09563775497E+01 -2.08293074993E+01
 -2.06915391127E+01 -2.05426567516E+01 -2.03823997833E+01 -2.02106445257E+01
 -2.00273738583E+01 -1.98326402750E+01 -1.96265288239E+01 -1.94091256377E+01
 -1.91804960305E+01 -1.89406739979E+01 -1.86896629936E+01 -1.84274464413E+01
 -1.81540056878E+01 -1.78693429387E+01 -1.75735069550E+01 -1.72666197246E+01
 -1.69489027905E+01 -1.66207023101E+01 -1.62825121845E+01 -1.59349947345E+01
 -1.55789984125E+01 -1.52155719555E+01 -1.48459742346E+01 -1.44716788574E+01
 -1.40943723473E+01 -1.37159444806E+01 -1.33384691186E+01 -1.29641736474E+01
 -1.25953949652E+01 -1.22345198811E+01 -1.18839078834E+01 -1.15457946199E+01
 -1.12221752819E+01 -1.09146686568E+01 -1.06243652798E+01 -1.03516673858E+01
 -1.00961349376E+01 -9.85636185156E+00 -9.62992099498E+00 -9.41343750431E+00
 -9.20288015286E+00 -8.99420358511E+00 -8.78453488203E+00 -8.57418169975E+00
 -8.36750827387E+00 -8.16581453017E+00 -7.96898197619E+00 -7.77689359524E+00
 -7.58943514876E+00 -7.40649511959E+00 -7.22796465468E+00 -7.05373750681E+00
 -6.88370997668E+00 -6.71778085513E+00 -6.55585136588E+00 -6.39782510876E+00
 -6.24360800413E+00 -6.09310823771E+00 -5.94623620701E+00 -5.80290446837E+00
 -5.66302768525E+00 -5.52652257777E+00 -5.39330787332E+00 -5.26330425807E+00
 -5.13643433003E+00 -5.01262255291E+00 -4.89179521112E+00 -4.77388036605E+00
 -4.65880781303E+00 -4.54650903976E+00 -4.43691718526E+00 -4.32996700036E+00
 -4.22559480857E+00 -4.12373846840E+00 -4.02433733620E+00 -3.92733223011E+00
 -3.83266539486E+00 -3.74028046732E+00 -3.65012244299E+00 -3.56213764318E+00
 -3.47627368321E+00 -3.39247944103E+00 -3.31070502687E+00 -3.23090175353E+00
 -3.15302210749E+00 -3.07701972039E+00 -3.00284934166E+00 -2.93046681143E+00
 -2.85982903426E+00 -2.79089395361E+00 -2.72362052661E+00 -2.65796869971E+00
 -2.59389938493E+00 -2.53137443634E+00 -2.47035662764E+00 -2.41080962979E+00
 -2.35269798943E+00 -2.29598710787E+00 -2.24064322033E+00 -2.18663337595E+00
 -2.13392541813E+00 -2.08248796539E+00 -2.03229039267E+00 -1.98330281319E+00
 -1.93549606050E+00 -1.88884167122E+00 -1.84331186809E+00 -1.79887954335E+00
 -1.75551824276E+00 -1.71320214967E+00 -1.67190606975E+00 -1.63160541598E+00
 -1.59227619397E+00 -1.55389498778E+00 -1.51643894582E+00 -1.47988576735E+00
 -1.44421368924E+00 -1.40940147285E+00 -1.37542839159E+00 -1.34227421839E+00
 -1.30991921381E+00 -1.27834411420E+00 -1.24753012022E+00 -1.21745888574E+00
 -1.18811250682E+00 -1.15947351110E+00 -1.13152484738E+00 -1.10424987545E+00
 -1.07763235625E+00 -1.05165644213E+00 -1.02630666744E+00 -1.00156793934E+00
 -9.77425528784E-01 -9.53865061751E-01 -9.30872510734E-01 -9.08434186336E-01
 -8.86536729123E-01 -8.65167101717E-01 -8.44312580964E-01 -8.23960750424E-01
 -8.04099492948E-01 -7.84716983459E-01 -7.65801681916E-01 -7.47342326454E-01
 -7.29327926668E-01 -7.11747757067E-01 -6.94591350702E-01 -6.77848492925E-01
 -6.61509215309E-01 -6.45563789703E-01 -6.30002722461E-01 -6.14816748766E-01
 -5.99996827136E-01 -5.85534134022E-01 -5.71420058576E-01 -5.57646197498E-01
 -5.44204350051E-01 -5.31086513177E-01 -5.18284876723E-01 -5.05791818800E-01
 -4.93599901235E-01 -4.81701865170E-01 -4.70090626688E-01 -4.58759272654E-01
 -4.47701056556E-01 -4.36909394512E-01 -4.26377861337E-01 -4.16100186726E-01
 -4.06070251515E-01 -3.96282084035E-01 -3.86729856581E-01 -3.77407881896E-01
 -3.68310609833E-01 -3.59432624020E-01 -3.50768638646E-01 -3.42313495312E-01
 -3.34062159962E-01 -3.26009719880E-01 -3.18151380776E-01 -3.10482463917E-01
 -3.02998403352E-01 -2.95694743196E-01 -2.88567134962E-01 -2.81611334988E-01
 -2.74823201901E-01 -2.68198694156E-01 -2.61733867626E-01 -2.55424873256E-01
 -2.49267954773E-01 -2.43259446447E-01 -2.37395770905E-01 -2.31673437009E-01
 -2.26089037777E-01 -2.20639248343E-01 -2.15320823992E-01 -2.10130598214E-01
 -2.05065480838E-01 -2.00122456170E-01 -1.95298581214E-01 -1.90590983912E-01
 -1.85996861435E-01 -1.81513478515E-01 -1.77138165820E-01 -1.72868318356E-01
 -1.68701393927E-01 -1.64634911608E-01 -1.60666450286E-01 -1.56793647201E-01
 -1.53014196547E-01
</PP_LOCAL>


<PP_NONLOCAL>
  <PP_BETA>
    1    0             Beta    L
   473
  9.27610706803E-03  9.50522691263E-03  9.74000601723E-03  9.98058416590E-03
  1.02271045937E-02  1.04797140655E-02  1.07385629815E-02  1.10038054550E-02
  1.12755994061E-02  1.15541066554E-02  1.18394930204E-02  1.21319284141E-02
  1.24315869466E-02  1.27386470282E-02  1.30532914758E-02  1.33757076218E-02
  1.37060874262E-02  1.40446275891E-02  1.43915296703E-02  1.47470002065E-02
  1.51112508377E-02  1.54844984290E-02  1.58669652037E-02  1.62588788730E-02
  1.66604727727E-02  1.70719860014E-02  1.74936635636E-02  1.79257565148E-02
  1.83685221122E-02  1.88222239658E-02  1.92871321971E-02  1.97635235992E-02
  2.02516818017E-02  2.07518974401E-02  2.12644683265E-02  2.17896996302E-02
  2.23279040572E-02  2.28794020368E-02  2.34445219119E-02  2.40236001360E-02
  2.46169814713E-02  2.52250191957E-02  2.58480753122E-02  2.64865207645E-02
  2.71407356576E-02  2.78111094846E-02  2.84980413578E-02  2.92019402467E-02
  2.99232252209E-02  3.06623257008E-02  3.14196817118E-02  3.21957441454E-02
  3.29909750305E-02  3.38058478061E-02  3.46408476024E-02  3.54964715316E-02
  3.63732289823E-02  3.72716419225E-02  3.81922452112E-02  3.91355869159E-02
  4.01022286376E-02  4.10927458485E-02  4.21077282297E-02  4.31477800246E-02