<PP_INFO>
Generated using modified version of ld1 code for metaGGA
Author: Xiaofei Wang/Carlo Sbraccia   Generation date: 2005
Info: automatically converted from PWSCF format                                 
    0        The Pseudo was generated with a Non-Relativistic Calculation
nl pn  l   occ               Rcut            Rcut US             E pseu
2S  0  0  2.00      0.00000000000      0.00000000000      0.00000000000
2P  0  1  4.00      0.00000000000      0.00000000000      0.00000000000
</PP_INFO>


<PP_HEADER>
   0                   Version Number
   O                   Element
   NC                  Norm - Conserving pseudopotential
    F                  Nonlinear Core Correction
 SLA  PW   TPSS TPSS   META Exchange-Correlation functional
    6.00000000000      Z valence
    0.00000000000      Total energy
  0.0000000  0.0000000 Suggested cutoff for wfc and rho
    0                  Max angular momentum component
 1523                  Number of points in mesh
    2    1             Number of Wavefunctions, Number of Projectors
 Wavefunctions         nl  l   occ
                       2S  0  2.00
                       2P  1  4.00
</PP_HEADER>


<PP_MESH>
  <PP_R>
  3.09844022083E-04  3.12332715762E-04  3.14841398840E-04  3.17370231876E-04
  3.19919376715E-04  3.22488996503E-04  3.25079255698E-04  3.27690320075E-04
  3.30322356745E-04  3.32975534158E-04  3.35650022119E-04  3.38345991796E-04
  3.41063615733E-04  3.43803067856E-04  3.46564523494E-04  3.49348159380E-04
  3.52154153667E-04  3.54982685939E-04  3.57833937225E-04  3.60708090006E-04
  3.63605328227E-04  3.66525837313E-04  3.69469804178E-04  3.72437417236E-04
  3.75428866416E-04  3.78444343172E-04  3.81484040495E-04  3.84548152927E-04
  3.87636876572E-04  3.90750409109E-04  3.93888949806E-04  3.97052699530E-04
  4.00241860762E-04  4.03456637610E-04  4.06697235820E-04  4.09963862793E-04
  4.13256727593E-04  4.16576040964E-04  4.19922015344E-04  4.23294864876E-04
  4.26694805424E-04  4.30122054586E-04  4.33576831706E-04  4.37059357890E-04
  4.40569856023E-04  4.44108550778E-04  4.47675668631E-04  4.51271437879E-04
  4.54896088654E-04  4.58549852934E-04  4.62232964560E-04  4.65945659255E-04
  4.69688174630E-04  4.73460750209E-04  4.77263627438E-04  4.81097049701E-04
  4.84961262340E-04  4.88856512666E-04  4.92783049975E-04  4.96741125567E-04
  5.00730992761E-04  5.04752906910E-04  5.08807125417E-04  5.12893907753E-04
  5.17013515475E-04  5.21166212238E-04  5.25352263817E-04  5.29571938119E-04
  5.33825505207E-04  5.38113237309E-04  5.42435408842E-04  5.46792296427E-04
  5.51184178905E-04  5.55611337358E-04  5.60074055127E-04  5.64572617827E-04
  5.69107313366E-04  5.73678431968E-04  5.78286266186E-04  5.82931110922E-04
  5.87613263448E-04  5.92333023423E-04  5.97090692915E-04  6.01886576414E-04
  6.06720980859E-04  6.11594215655E-04  6.16506592689E-04  6.21458426355E-04
  6.26450033573E-04  6.31481733807E-04  6.36553849087E-04  6.41666704031E-04
  6.46820625863E-04  6.52015944436E-04  6.57252992252E-04  6.62532104484E-04
  6.67853618996E-04  6.73217876368E-04  6.78625219914E-04  6.84075995706E-04
  6.89570552595E-04  6.95109242235E-04  7.00692419103E-04  7.06320440526E-04
  7.11993666697E-04  7.17712460707E-04  7.23477188559E-04  7.29288219198E-04
  7.35145924531E-04  7.41050679455E-04  7.47002861876E-04  7.53002852734E-04
  7.59051036032E-04  7.65147798856E-04  7.71293531400E-04  7.77488626993E-04
  7.83733482123E-04  7.90028496464E-04  7.96374072899E-04  8.02770617546E-04
  8.09218539786E-04  8.15718252289E-04  8.22270171039E-04  8.28874715361E-04
  8.35532307947E-04  8.42243374886E-04  8.49008345688E-04  8.55827653315E-04
  8.62701734203E-04  8.69631028297E-04  8.76615979073E-04  8.83657033572E-04
  8.90754642422E-04  8.97909259873E-04  9.05121343823E-04  9.12391355849E-04
  9.19719761232E-04  9.27107028994E-04  9.34553631923E-04  9.42060046603E-04
  9.49626753447E-04  9.57254236728E-04  9.64942984607E-04  9.72693489166E-04
  9.80506246440E-04  9.88381756449E-04  9.96320523228E-04  1.00432305486E-03
  1.01238986351E-03  1.02052146546E-03  1.02871838113E-03  1.03698113512E-03
  1.04531025627E-03  1.05370627763E-03  1.06216973654E-03  1.07070117469E-03
  1.07930113807E-03  1.08797017710E-03  1.09670884659E-03  1.10551770582E-03
  1.11439731855E-03  1.12334825310E-03  1.13237108232E-03  1.14146638368E-03
  1.15063473927E-03  1.15987673588E-03  1.16919296500E-03  1.17858402287E-03
  1.18805051051E-03  1.19759303380E-03  1.20721220344E-03  1.21690863508E-03
  1.22668294929E-03  1.23653577163E-03  1.24646773267E-03  1.25647946808E-03
  1.26657161860E-03  1.27674483014E-03  1.28699975378E-03  1.29733704585E-03
  1.30775736793E-03  1.31826138693E-03  1.32884977510E-03  1.33952321012E-03
  1.35028237508E-03  1.36112795857E-03  1.37206065471E-03  1.38308116321E-03
  1.39419018937E-03  1.40538844418E-03  1.41667664433E-03  1.42805551227E-03
  1.43952577625E-03  1.45108817037E-03  1.46274343463E-03  1.47449231497E-03
  1.48633556332E-03  1.49827393765E-03  1.51030820203E-03  1.52243912664E-03
  1.53466748788E-03  1.54699406837E-03  1.55941965700E-03  1.57194504902E-03
  1.58457104606E-03  1.59729845619E-03  1.61012809397E-03  1.62306078049E-03
  1.63609734346E-03  1.64923861722E-03  1.66248544281E-03  1.67583866803E-03
  1.68929914750E-03  1.70286774270E-03  1.71654532201E-03  1.73033276081E-03
  1.74423094150E-03  1.75824075356E-03  1.77236309363E-03  1.78659886554E-03
  1.80094898039E-03  1.81541435659E-03  1.82999591993E-03  1.84469460363E-03
  1.85951134841E-03  1.87444710256E-03  1.88950282196E-03  1.90467947019E-03
  1.91997801855E-03  1.93539944616E-03  1.95094474000E-03  1.96661489496E-03
  1.98241091395E-03  1.99833380792E-03  2.01438459593E-03  2.03056430524E-03
  2.04687397137E-03  2.06331463812E-03  2.07988735772E-03  2.09659319081E-03
  2.11343320659E-03  2.13040848281E-03  2.14752010590E-03  2.16476917102E-03
  2.18215678210E-03  2.19968405195E-03  2.21735210234E-03  2.23516206402E-03
  2.25311507683E-03  2.27121228978E-03  2.28945486109E-03  2.30784395829E-03
  2.32638075830E-03  2.34506644746E-03  2.36390222168E-03  2.38288928645E-03
  2.40202885695E-03  2.42132215811E-03  2.44077042472E-03  2.46037490147E-03
  2.48013684305E-03  2.50005751423E-03  2.52013818995E-03  2.54038015538E-03
  2.56078470600E-03  2.58135314771E-03  2.60208679691E-03  2.62298698056E-03
  2.64405503626E-03  2.66529231239E-03  2.68670016814E-03  2.70827997361E-03
  2.73003310993E-03  2.75196096930E-03  2.77406495511E-03  2.79634648202E-03
  2.81880697606E-03  2.84144787472E-03  2.86427062700E-03  2.88727669358E-03
  2.91046754686E-03  2.93384467106E-03  2.95740956231E-03  2.98116372879E-03
  3.00510869076E-03  3.02924598071E-03  3.05357714344E-03  3.07810373615E-03
  3.10282732855E-03  3.12774950296E-03  3.15287185440E-03  3.17819599072E-03
  3.20372353267E-03  3.22945611402E-03  3.25539538166E-03  3.28154299571E-03
  3.30790062964E-03  3.33446997034E-03  3.36125271825E-03  3.38825058748E-03
  3.41546530591E-03  3.44289861529E-03  3.47055227135E-03  3.49842804394E-03
  3.52652771712E-03  3.55485308927E-03  3.58340597324E-03  3.61218819641E-03
  3.64120160087E-03  3.67044804346E-03  3.69992939599E-03  3.72964754525E-03
  3.75960439324E-03  3.78980185719E-03  3.82024186975E-03  3.85092637909E-03
  3.88185734904E-03  3.91303675918E-03  3.94446660502E-03  3.97614889806E-03
  4.00808566598E-03  4.04027895276E-03  4.07273081877E-03  4.10544334094E-03
  4.13841861289E-03  4.17165874504E-03  4.20516586478E-03  4.23894211656E-03
  4.27298966209E-03  4.30731068041E-03  4.34190736809E-03  4.37678193932E-03
  4.41193662609E-03  4.44737367831E-03  4.48309536397E-03  4.51910396926E-03
  4.55540179874E-03  4.59199117549E-03  4.62887444125E-03  4.66605395655E-03
  4.70353210090E-03  4.74131127290E-03  4.77939389045E-03  4.81778239084E-03
  4.85647923094E-03  4.89548688737E-03  4.93480785664E-03  4.97444465529E-03
  5.01439982010E-03  5.05467590820E-03  5.09527549730E-03  5.13620118576E-03
  5.17745559285E-03  5.21904135887E-03  5.26096114531E-03  5.30321763506E-03
  5.34581353256E-03  5.38875156394E-03  5.43203447726E-03  5.47566504265E-03
  5.51964605246E-03  5.56398032151E-03  5.60867068719E-03  5.65372000972E-03
  5.69913117225E-03  5.74490708113E-03  5.79105066602E-03  5.83756488013E-03
  5.88445270038E-03  5.93171712762E-03  5.97936118677E-03  6.02738792709E-03
  6.07580042229E-03  6.12460177078E-03  6.17379509589E-03  6.22338354598E-03
  6.27337029475E-03  6.32375854136E-03  6.37455151067E-03  6.42575245346E-03
  6.47736464659E-03  6.52939139327E-03  6.58183602324E-03  6.63470189295E-03
  6.68799238585E-03  6.74171091254E-03  6.79586091104E-03  6.85044584695E-03
  6.90546921374E-03  6.96093453291E-03  7.01684535427E-03  7.07320525612E-03
  7.13001784553E-03  7.18728675851E-03  7.24501566030E-03  7.30320824556E-03
  7.36186823865E-03  7.42099939381E-03  7.48060549547E-03  7.54069035843E-03
  7.60125782815E-03  7.66231178097E-03  7.72385612435E-03  7.78589479717E-03
  7.84843176990E-03  7.91147104496E-03  7.97501665685E-03  8.03907267254E-03
  8.10364319162E-03  8.16873234663E-03  8.23434430330E-03  8.30048326082E-03
  8.36715345209E-03  8.43435914405E-03  8.50210463787E-03  8.57039426928E-03
  8.63923240886E-03  8.70862346226E-03  8.77857187053E-03  8.84908211040E-03
  8.92015869455E-03  8.99180617189E-03  9.06402912791E-03  9.13683218487E-03
  9.21022000222E-03  9.28419727679E-03  9.35876874316E-03  9.43393917392E-03
  9.50971338000E-03  9.58609621099E-03  9.66309255541E-03  9.74070734105E-03
  9.81894553529E-03  9.89781214539E-03  9.97731221885E-03  1.00574508437E-02
  1.01382331488E-02  1.02196643043E-02  1.03017495219E-02  1.03844940549E-02
  1.04679031990E-02  1.05519822926E-02  1.06367367166E-02  1.07221718954E-02
  1.08082932968E-02  1.08951064327E-02  1.09826168592E-02  1.10708301769E-02
  1.11597520315E-02  1.12493881140E-02  1.13397441612E-02  1.14308259559E-02
  1.15226393273E-02  1.16151901516E-02  1.17084843521E-02  1.18025278995E-02
  1.18973268128E-02  1.19928871590E-02  1.20892150541E-02  1.21863166631E-02
  1.22841982005E-02  1.23828659308E-02  1.24823261688E-02  1.25825852799E-02
  1.26836496807E-02  1.27855258394E-02  1.28882202762E-02  1.29917395635E-02
  1.30960903265E-02  1.32012792438E-02  1.33073130474E-02  1.34141985236E-02
  1.35219425131E-02  1.36305519116E-02  1.37400336700E-02  1.38503947953E-02
  1.39616423506E-02  1.40737834557E-02  1.41868252878E-02  1.43007750815E-02
  1.44156401298E-02  1.45314277839E-02  1.46481454543E-02  1.47658006111E-02
  1.48844007842E-02  1.50039535639E-02  1.51244666019E-02  1.52459476108E-02
  1.53684043656E-02  1.54918447035E-02  1.56162765248E-02  1.57417077931E-02
  1.58681465361E-02  1.59956008459E-02  1.61240788796E-02  1.62535888598E-02
  1.63841390753E-02  1.65157378812E-02  1.66483937001E-02  1.67821150218E-02
  1.69169104046E-02  1.70527884754E-02  1.71897579305E-02  1.73278275360E-02
  1.74670061284E-02  1.76073026151E-02  1.77487259752E-02  1.78912852599E-02
  1.80349895928E-02  1.81798481713E-02  1.83258702663E-02  1.84730652232E-02
  1.86214424626E-02  1.87710114807E-02  1.89217818499E-02  1.90737632196E-02
  1.92269653167E-02  1.93813979461E-02  1.95370709916E-02  1.96939944163E-02
  1.98521782634E-02  2.00116326566E-02  2.01723678012E-02  2.03343939842E-02
  2.04977215754E-02  2.06623610277E-02  2.08283228782E-02  2.09956177485E-02
  2.11642563454E-02  2.13342494620E-02  2.15056079779E-02  2.16783428600E-02
  2.18524651634E-02  2.20279860321E-02  2.22049166994E-02  2.23832684889E-02
  2.25630528153E-02  2.27442811848E-02  2.29269651960E-02  2.31111165408E-02
  2.32967470049E-02  2.34838684688E-02  2.36724929084E-02  2.38626323955E-02
  2.40542990993E-02  2.42475052864E-02  2.44422633221E-02  2.46385856710E-02
  2.48364848978E-02  2.50359736681E-02  2.52370647493E-02  2.54397710113E-02
  2.56441054272E-02  2.58500810747E-02  2.60577111362E-02  2.62670089001E-02
  2.64779877615E-02  2.66906612232E-02  2.69050428963E-02  2.71211465014E-02
  2.73389858690E-02  2.75585749411E-02  2.77799277714E-02  2.80030585266E-02
  2.82279814871E-02  2.84547110480E-02  2.86832617201E-02  2.89136481308E-02
  2.91458850248E-02  2.93799872654E-02  2.96159698353E-02  2.98538478373E-02
  3.00936364957E-02  3.03353511572E-02  3.05790072915E-02  3.08246204927E-02
  3.10722064801E-02  3.13217810994E-02  3.15733603233E-02  3.18269602531E-02
  3.20825971192E-02  3.23402872825E-02  3.26000472351E-02  3.28618936020E-02
  3.31258431412E-02  3.33919127457E-02  3.36601194441E-02  3.39304804015E-02
  3.42030129213E-02  3.44777344456E-02  3.47546625566E-02  3.50338149780E-02
  3.53152095754E-02  3.55988643583E-02  3.58847974807E-02  3.61730272424E-02
  3.64635720901E-02  3.67564506190E-02  3.70516815732E-02  3.73492838476E-02
  3.76492764890E-02  3.79516786970E-02  3.82565098253E-02  3.85637893833E-02
  3.88735370370E-02  3.91857726103E-02  3.95005160865E-02  3.98177876092E-02
  4.01376074838E-02  4.04599961791E-02  4.07849743279E-02  4.11125627290E-02
  4.14427823481E-02  4.17756543195E-02  4.21111999470E-02  4.24494407056E-02
  4.27903982430E-02  4.31340943804E-02  4.34805511146E-02  4.38297906190E-02
  4.41818352448E-02  4.45367075233E-02  4.48944301662E-02  4.52550260679E-02
  4.56185183068E-02  4.59849301464E-02  4.63542850373E-02  4.67266066182E-02
  4.71019187179E-02  4.74802453564E-02  4.78616107469E-02  4.82460392968E-02
  4.86335556097E-02  4.90241844867E-02  4.94179509283E-02  4.98148801356E-02
  5.02149975122E-02  5.06183286658E-02  5.10248994097E-02  5.14347357646E-02
  5.18478639602E-02  5.22643104367E-02  5.26841018470E-02  5.31072650577E-02
  5.35338271516E-02  5.39638154286E-02  5.43972574083E-02  5.48341808310E-02
  5.52746136600E-02  5.57185840831E-02  5.61661205147E-02  5.66172515971E-02
  5.70720062029E-02  5.75304134366E-02  5.79925026365E-02  5.84583033762E-02
  5.89278454674E-02  5.94011589608E-02  5.98782741486E-02  6.03592215664E-02
  6.08440319950E-02  6.13327364624E-02  6.18253662459E-02  6.23219528739E-02
  6.28225281282E-02  6.33271240457E-02  6.38357729208E-02  6.43485073071E-02
  6.48653600199E-02  6.53863641378E-02  6.59115530054E-02  6.64409602348E-02
  6.69746197084E-02  6.75125655805E-02  6.80548322799E-02  6.86014545118E-02
  6.91524672601E-02  6.97079057900E-02  7.02678056496E-02  7.08322026728E-02
  7.14011329811E-02  7.19746329863E-02  7.25527393926E-02  7.31354891990E-02
  7.37229197016E-02  7.43150684963E-02  7.49119734807E-02  7.55136728570E-02
  7.61202051341E-02  7.67316091304E-02  7.73479239758E-02  7.79691891147E-02
  7.85954443084E-02  7.92267296373E-02  7.98630855040E-02  8.05045526354E-02
  8.11511720856E-02  8.18029852386E-02  8.24600338105E-02  8.31223598528E-02
  8.37900057545E-02  8.44630142451E-02  8.51414283974E-02  8.58252916303E-02
  8.65146477111E-02  8.72095407589E-02  8.79100152470E-02  8.86161160062E-02
  8.93278882270E-02  9.00453774632E-02  9.07686296342E-02  9.14976910285E-02
  9.22326083063E-02  9.29734285025E-02  9.37201990299E-02  9.44729676820E-02
  9.52317826362E-02  9.59966924571E-02  9.67677460990E-02  9.75449929098E-02
  9.83284826333E-02  9.91182654133E-02  9.99143917962E-02  1.00716912734E-01
  1.01525879589E-01  1.02341344135E-01  1.03163358561E-01  1.03991975478E-01
  1.04827247917E-01  1.05669229336E-01  1.06517973621E-01  1.07373535093E-01
  1.08235968507E-01  1.09105329061E-01  1.09981672393E-01  1.10865054590E-01
  1.11755532188E-01  1.12653162178E-01  1.13558002009E-01  1.14470109590E-01
  1.15389543298E-01  1.16316361976E-01  1.17250624941E-01  1.18192391986E-01
  1.19141723385E-01  1.20098679894E-01  1.21063322760E-01  1.22035713720E-01
  1.23015915007E-01  1.24003989355E-01  1.25000000000E-01  1.26004010688E-01
  1.27016085676E-01  1.28036289736E-01  1.29064688163E-01  1.30101346774E-01
  1.31146331916E-01  1.32199710467E-01  1.33261549845E-01  1.34331918008E-01
  1.35410883459E-01  1.36498515254E-01  1.37594882999E-01  1.38700056864E-01
  1.39814107581E-01  1.40937106447E-01  1.42069125337E-01  1.43210236699E-01
  1.44360513566E-01  1.45520029554E-01  1.46688858874E-01  1.47867076331E-01
  1.49054757331E-01  1.50251977887E-01  1.51458814621E-01  1.52675344770E-01
  1.53901646194E-01  1.55137797375E-01  1.56383877429E-01  1.57639966104E-01
  1.58906143790E-01  1.60182491524E-01  1.61469090992E-01  1.62766024538E-01
  1.64073375164E-01  1.65391226542E-01  1.66719663015E-01  1.68058769604E-01
  1.69408632011E-01  1.70769336629E-01  1.72140970542E-01  1.73523621536E-01
  1.74917378101E-01  1.76322329438E-01  1.77738565465E-01  1.79166176820E-01
  1.80605254872E-01  1.82055891721E-01  1.83518180210E-01  1.84992213925E-01
  1.86478087205E-01  1.87975895146E-01  1.89485733609E-01  1.91007699223E-01
  1.92541889395E-01  1.94088402314E-01  1.95647336957E-01  1.97218793096E-01
  1.98802871305E-01  2.00399672966E-01  2.02009300274E-01  2.03631856247E-01
  2.05267444727E-01  2.06916170395E-01  2.08578138767E-01  2.10253456212E-01
  2.11942229950E-01  2.13644568063E-01  2.15360579501E-01  2.17090374090E-01
  2.18834062537E-01  2.20591756439E-01  2.22363568288E-01  2.24149611481E-01
  2.25950000327E-01  2.27764850049E-01  2.29594276799E-01  2.31438397662E-01
  2.33297330661E-01  2.35171194769E-01  2.37060109913E-01  2.38964196986E-01
  2.40883577848E-01  2.42818375342E-01  2.44768713295E-01  2.46734716529E-01
  2.48716510869E-01  2.50714223150E-01  2.52727981228E-01  2.54757913982E-01
  2.56804151330E-01  2.58866824232E-01  2.60946064698E-01  2.63042005802E-01
  2.65154781684E-01  2.67284527562E-01  2.69431379741E-01  2.71595475621E-01
  2.73776953704E-01  2.75975953605E-01  2.78192616062E-01  2.80427082940E-01
  2.82679497248E-01  2.84950003141E-01  2.87238745930E-01  2.89545872098E-01
  2.91871529300E-01  2.94215866379E-01  2.96579033375E-01  2.98961181530E-01
  3.01362463302E-01  3.03783032375E-01  3.06223043666E-01  3.08682653336E-01
  3.11162018801E-01  3.13661298742E-01  3.16180653113E-01  3.18720243154E-01
  3.21280231398E-01  3.23860781688E-01  3.26462059178E-01  3.29084230351E-01
  3.31727463027E-01  3.34391926375E-01  3.37077790919E-01  3.39785228557E-01
  3.42514412566E-01  3.45265517614E-01  3.48038719774E-01  3.50834196530E-01
  3.53652126794E-01  3.56492690915E-01  3.59356070690E-01  3.62242449376E-01
  3.65152011703E-01  3.68084943883E-01  3.71041433625E-01  3.74021670146E-01
  3.77025844181E-01  3.80054147999E-01  3.83106775412E-01  3.86183921789E-01
  3.89285784069E-01  3.92412560772E-01  3.95564452013E-01  3.98741659515E-01
  4.01944386618E-01  4.05172838299E-01  4.08427221180E-01  4.11707743543E-01
  4.15014615342E-01  4.18348048218E-01  4.21708255512E-01  4.25095452278E-01
  4.28509855298E-01  4.31951683095E-01  4.35421155948E-01  4.38918495903E-01
  4.42443926791E-01  4.45997674242E-01  4.49579965696E-01  4.53191030422E-01
  4.56831099528E-01  4.60500405980E-01  4.64199184616E-01  4.67927672158E-01
  4.71686107230E-01  4.75474730375E-01  4.79293784064E-01  4.83143512719E-01
  4.87024162724E-01  4.90935982442E-01  4.94879222230E-01  4.98854134457E-01
  5.02860973520E-01  5.06899995856E-01  5.10971459964E-01  5.15075626421E-01
  5.19212757894E-01  5.23383119160E-01  5.27586977125E-01  5.31824600836E-01
  5.36096261503E-01  5.40402232514E-01  5.44742789452E-01  5.49118210115E-01
  5.53528774530E-01  5.57974764977E-01  5.62456465998E-01  5.66974164425E-01
  5.71528149393E-01  5.76118712357E-01  5.80746147115E-01  5.85410749825E-01
  5.90112819023E-01  5.94852655642E-01  5.99630563035E-01  6.04446846988E-01
  6.09301815746E-01  6.14195780028E-01  6.19129053049E-01  6.24101950542E-01
  6.29114790772E-01  6.34167894563E-01  6.39261585316E-01  6.44396189029E-01
  6.49572034318E-01  6.54789452439E-01  6.60048777308E-01  6.65350345525E-01
  6.70694496390E-01  6.76081571932E-01  6.81511916926E-01  6.86985878915E-01
  6.92503808235E-01  6.98066058035E-01  7.03672984300E-01  7.09324945877E-01
  7.15022304493E-01  7.20765424780E-01  7.26554674300E-01  7.32390423568E-01
  7.38273046072E-01  7.44202918304E-01  7.50180419776E-01  7.56205933052E-01
  7.62279843765E-01  7.68402540648E-01  7.74574415556E-01  7.80795863491E-01
  7.87067282628E-01  7.93389074340E-01  7.99761643223E-01  8.06185397125E-01
  8.12660747167E-01  8.19188107774E-01  8.25767896700E-01  8.32400535053E-01
  8.39086447324E-01  8.45826061414E-01  8.52619808661E-01  8.59468123867E-01
  8.66371445326E-01  8.73330214854E-01  8.80344877813E-01  8.87415883145E-01
  8.94543683396E-01  9.01728734748E-01  9.08971497047E-01  9.16272433833E-01
  9.23632012366E-01  9.31050703664E-01  9.38528982525E-01  9.46067327561E-01
  9.53666221228E-01  9.61326149860E-01  9.69047603693E-01  9.76831076904E-01
  9.84677067637E-01  9.92586078038E-01  1.00055861429E+00  1.00859518663E+00
  1.01669630941E+00  1.02486250110E+00  1.03309428434E+00  1.04139218596E+00
  1.04975673704E+00  1.05818847291E+00  1.06668793321E+00  1.07525566189E+00
  1.08389220731E+00  1.09259812219E+00  1.10137396373E+00  1.11022029358E+00
  1.11913767791E+00  1.12812668743E+00  1.13718789744E+00  1.14632188787E+00
  1.15552924329E+00  1.16481055297E+00  1.17416641093E+00  1.18359741594E+00
  1.19310417159E+00  1.20268728631E+00  1.21234737343E+00  1.22208505119E+00
  1.23190094282E+00  1.24179567652E+00  1.25176988557E+00  1.26182420833E+00
  1.27195928826E+00  1.28217577402E+00  1.29247431947E+00  1.30285558371E+00
  1.31332023116E+00  1.32386893155E+00  1.33450236001E+00  1.34522119707E+00
  1.35602612875E+00  1.36691784656E+00  1.37789704758E+00  1.38896443448E+00
  1.40012071558E+00  1.41136660489E+00  1.42270282213E+00  1.43413009285E+00
  1.44564914838E+00  1.45726072595E+00  1.46896556870E+00  1.48076442575E+00
  1.49265805223E+00  1.50464720934E+00  1.51673266437E+00  1.52891519082E+00
  1.54119556836E+00  1.55357458295E+00  1.56605302683E+00  1.57863169865E+00
  1.59131140343E+00  1.60409295269E+00  1.61697716444E+00  1.62996486329E+00
  1.64305688044E+00  1.65625405379E+00  1.66955722797E+00  1.68296725438E+00
  1.69648499126E+00  1.71011130377E+00  1.72384706398E+00  1.73769315100E+00
  1.75165045097E+00  1.76571985716E+00  1.77990227003E+00  1.79419859725E+00
  1.80860975380E+00  1.82313666199E+00  1.83778025154E+00  1.85254145966E+00
  1.86742123106E+00  1.88242051806E+00  1.89754028062E+00  1.91278148640E+00
  1.92814511085E+00  1.94363213725E+00  1.95924355676E+00  1.97498036853E+00
  1.99084357972E+00  2.00683420558E+00  2.02295326951E+00  2.03920180314E+00
  2.05558084639E+00  2.07209144751E+00  2.08873466319E+00  2.10551155860E+00
  2.12242320746E+00  2.13947069214E+00  2.15665510368E+00  2.17397754187E+00
  2.19143911537E+00  2.20904094173E+00  2.22678414745E+00  2.24466986812E+00
  2.26269924843E+00  2.28087344227E+00  2.29919361278E+00  2.31766093247E+00
  2.33627658325E+00  2.35504175653E+00  2.37395765328E+00  2.39302548414E+00
  2.41224646944E+00  2.43162183934E+00  2.45115283387E+00  2.47084070301E+00
  2.49068670681E+00  2.51069211540E+00  2.53085820914E+00  2.55118627868E+00
  2.57167762501E+00  2.59233355958E+00  2.61315540439E+00  2.63414449203E+00
  2.65530216582E+00  2.67662977986E+00  2.69812869911E+00  2.71980029952E+00
  2.74164596808E+00  2.76366710292E+00  2.78586511340E+00  2.80824142019E+00
  2.83079745540E+00  2.85353466260E+00  2.87645449700E+00  2.89955842547E+00
  2.92284792667E+00  2.94632449113E+00  2.96998962137E+00  2.99384483196E+00
  3.01789164963E+00  3.04213161340E+00  3.06656627464E+00  3.09119719716E+00
  3.11602595736E+00  3.14105414428E+00  3.16628335974E+00  3.19171521842E+00
  3.21735134796E+00  3.24319338908E+00  3.26924299569E+00  3.29550183497E+00
  3.32197158748E+00  3.34865394732E+00  3.37555062215E+00  3.40266333337E+00
  3.42999381620E+00  3.45754381981E+00  3.48531510741E+00  3.51330945636E+00
  3.54152865832E+00  3.56997451932E+00  3.59864885991E+00  3.62755351525E+00
  3.65669033525E+00  3.68606118469E+00  3.71566794330E+00  3.74551250592E+00
  3.77559678263E+00  3.80592269882E+00  3.83649219536E+00  3.86730722871E+00
  3.89836977104E+00  3.92968181037E+00  3.96124535067E+00  3.99306241203E+00
  4.02513503075E+00  4.05746525948E+00  4.09005516738E+00  4.12290684020E+00
  4.15602238047E+00  4.18940390758E+00  4.22305355798E+00  4.25697348525E+00
  4.29116586027E+00  4.32563287137E+00  4.36037672446E+00  4.39539964314E+00
  4.43070386890E+00  4.46629166122E+00  4.50216529773E+00  4.53832707435E+00
  4.57477930546E+00  4.61152432400E+00  4.64856448168E+00  4.68590214907E+00
  4.72353971579E+00  4.76147959067E+00  4.79972420187E+00  4.83827599706E+00
  4.87713744356E+00  4.91631102852E+00  4.95579925907E+00  4.99560466246E+00
  5.03572978626E+00  5.07617719848E+00  5.11694948777E+00  5.15804926358E+00
  5.19947915630E+00  5.24124181746E+00  5.28333991988E+00  5.32577615787E+00
  5.36855324735E+00  5.41167392606E+00  5.45514095376E+00  5.49895711234E+00
  5.54312520605E+00  5.58764806166E+00  5.63252852866E+00  5.67776947941E+00
  5.72337380934E+00  5.76934443715E+00  5.81568430497E+00  5.86239637858E+00
  5.90948364755E+00  5.95694912549E+00  6.00479585021E+00  6.05302688392E+00
  6.10164531341E+00  6.15065425028E+00  6.20005683113E+00  6.24985621773E+00
  6.30005559726E+00  6.35065818250E+00  6.40166721203E+00  6.45308595044E+00
  6.50491768856E+00  6.55716574364E+00  6.60983345956E+00  6.66292420707E+00
  6.71644138401E+00  6.77038841549E+00  6.82476875414E+00  6.87958588032E+00
  6.93484330235E+00  6.99054455671E+00  7.04669320831E+00  7.10329285068E+00
  7.16034710622E+00  7.21785962642E+00  7.27583409210E+00  7.33427421364E+00
  7.39318373124E+00  7.45256641511E+00  7.51242606579E+00  7.57276651429E+00
  7.63359162244E+00  7.69490528305E+00  7.75671142023E+00  7.81901398959E+00
  7.88181697852E+00  7.94512440642E+00  8.00894032499E+00  8.07326881848E+00
  8.13811400393E+00  8.20348003145E+00  8.26937108450E+00  8.33579138012E+00
  8.40274516923E+00  8.47023673690E+00  8.53827040261E+00  8.60685052054E+00
  8.67598147984E+00  8.74566770492E+00  8.81591365572E+00  8.88672382800E+00
  8.95810275364E+00  9.03005500092E+00  9.10258517479E+00  9.17569791723E+00
  9.24939790746E+00  9.32368986231E+00  9.39857853650E+00  9.47406872293E+00
  9.55016525298E+00  9.62687299687E+00  9.70419686392E+00  9.78214180289E+00
  9.86071280226E+00  9.93991489062E+00  1.00197531369E+01  1.01002326509E+01
  1.01813585831E+01  1.02631361258E+01  1.03455705127E+01  1.04286670197E+01
  1.05124309649E+01  1.05968677092E+01  1.06819826567E+01  1.07677812548E+01
  1.08542689945E+01  1.09414514112E+01  1.10293340845E+01  1.11179226389E+01
  1.12072227441E+01  1.12972401155E+01  1.13879805141E+01  1.14794497473E+01
  1.15716536692E+01  1.16645981809E+01  1.17582892308E+01  1.18527328153E+01
  1.19479349788E+01  1.20439018141E+01  1.21406394633E+01  1.22381541175E+01
  1.23364520178E+01  1.24355394552E+01  1.25354227714E+01  1.26361083590E+01
  1.27376026618E+01  1.28399121754E+01  1.29430434479E+01  1.30470030796E+01
  1.31517977239E+01  1.32574340877E+01  1.33639189319E+01  1.34712590714E+01
  1.35794613761E+01  1.36885327710E+01  1.37984802367E+01  1.39093108097E+01
  1.40210315835E+01  1.41336497080E+01  1.42471723910E+01  1.43616068978E+01
  1.44769605524E+01  1.45932407374E+01  1.47104548948E+01  1.48286105263E+01
  1.49477151939E+01  1.50677765205E+01  1.51888021898E+01  1.53107999477E+01
  1.54337776021E+01  1.55577430234E+01  1.56827041456E+01  1.58086689663E+01
  1.59356455471E+01  1.60636420147E+01  1.61926665609E+01  1.63227274432E+01
  1.64538329857E+01  1.65859915791E+01  1.67192116817E+01  1.68535018195E+01
  1.69888705871E+01  1.71253266483E+01  1.72628787362E+01  1.74015356543E+01
  1.75413062766E+01  1.76821995484E+01  1.78242244871E+01  1.79673901823E+01
  1.81117057965E+01  1.82571805661E+01  1.84038238014E+01  1.85516448878E+01
  1.87006532858E+01  1.88508585320E+01  1.90022702395E+01  1.91548980989E+01
  1.93087518782E+01  1.94638414243E+01  1.96201766629E+01  1.97777675994E+01
  1.99366243199E+01  2.00967569911E+01  2.02581758616E+01  2.04208912623E+01
  2.05849136070E+01  2.07502533931E+01  2.09169212026E+01  2.10849277022E+01
  2.12542836444E+01  2.14249998679E+01  2.15970872988E+01  2.17705569506E+01
  2.19454199255E+01  2.21216874148E+01  2.22993706996E+01  2.24784811518E+01
  2.26590302344E+01  2.28410295027E+01  2.30244906047E+01  2.32094252819E+01
  2.33958453702E+01  2.35837628007E+01  2.37731896000E+01  2.39641378916E+01
  2.41566198962E+01  2.43506479327E+01  2.45462344190E+01  2.47433918726E+01
  2.49421329118E+01  2.51424702560E+01  2.53444167269E+01  2.55479852491E+01
  2.57531888511E+01  2.59600406660E+01  2.61685539323E+01  2.63787419950E+01
  2.65906183062E+01  2.68041964260E+01  2.70194900236E+01  2.72365128778E+01
  2.74552788780E+01  2.76758020255E+01  2.78980964338E+01  2.81221763298E+01
  2.83480560546E+01  2.85757500647E+01  2.88052729326E+01  2.90366393477E+01
  2.92698641177E+01  2.95049621690E+01  2.97419485480E+01  2.99808384218E+01
  3.02216470795E+01  3.04643899329E+01  3.07090825177E+01  3.09557404942E+01
  3.12043796487E+01  3.14550158942E+01  3.17076652714E+01  3.19623439500E+01
  3.22190682295E+01  3.24778545404E+01  3.27387194450E+01  3.30016796389E+01
  3.32667519516E+01  3.35339533477E+01  3.38033009283E+01  3.40748119317E+01
  3.43485037346E+01  3.46243938536E+01  3.49024999455E+01  3.51828398094E+01
  3.54654313870E+01  3.57502927644E+01  3.60374421727E+01  3.63268979896E+01
  3.66186787403E+01  3.69128030990E+01  3.72092898897E+01  3.75081580877E+01
  3.78094268205E+01  3.81131153696E+01  3.84192431711E+01  3.87278298173E+01
  3.90388950577E+01  3.93524588008E+01  3.96685411147E+01  3.99871622288E+01
  4.03083425349E+01  4.06321025887E+01  4.09584631109E+01  4.12874449887E+01
  4.16190692771E+01  4.19533572002E+01  4.22903301524E+01  4.26300097002E+01
  4.29724175831E+01  4.33175757155E+01  4.36655061875E+01  4.40162312667E+01
  4.43697733999E+01  4.47261552136E+01  4.50853995166E+01  4.54475293005E+01
  4.58125677418E+01  4.61805382030E+01  4.65514642345E+01  4.69253695756E+01
  4.73022781564E+01  4.76822140991E+01  4.80652017197E+01  4.84512655297E+01