<PP_INFO>
Generated using Vanderbilt code, version   7  3  5                              
Author: unknown    Generation date:    9    6 2004                              
Automatically converted from original format                                    
    1        The Pseudo was generated with a Scalar-Relativistic Calculation
  2.60000000000E+00    Local Potential cutoff radius
nl pn  l   occ               Rcut            Rcut US             E pseu
5D  5  2  7.00     10.00000000000      2.20000000000     -0.34578413558
6S  6  0  1.00     10.00000000000      2.26000000000     -0.39912166294
6P  6  1  0.00     10.00000000000      2.50000000000     -0.07262232145
</PP_INFO>


<PP_HEADER>
   0                   Version Number
  Os                   Element
   US                  Ultrasoft pseudopotential
    T                  Nonlinear Core Correction
 SLA  PW   PBE  PBE    PBE  Exchange-Correlation functional
    8.00000000000      Z valence
  -65.92908546120      Total energy
  0.0000000  0.0000000 Suggested cutoff for wfc and rho
    2                  Max angular momentum component
  983                  Number of points in mesh
    3    6             Number of Wavefunctions, Number of Projectors
 Wavefunctions         nl  l   occ
                       5D  2  7.00
                       6S  0  1.00
                       6P  1  0.00
</PP_HEADER>


<PP_MESH>
  <PP_R>
  0.00000000000E+00  2.01649862979E-07  4.06688720177E-07  6.15173528151E-07
  8.27162200689E-07  1.04271362490E-06  1.26188767755E-06  1.48474524175E-06
  1.71134822380E-06  1.94175957044E-06  2.17604328629E-06  2.41426445167E-06
  2.65648924066E-06  2.90278493949E-06  3.15321996520E-06  3.40786388469E-06
  3.66678743403E-06  3.93006253808E-06  4.19776233051E-06  4.46996117410E-06
  4.74673468139E-06  5.02815973568E-06  5.31431451241E-06  5.60527850086E-06
  5.90113252623E-06  6.20195877210E-06  6.50784080324E-06  6.81886358886E-06
  7.13511352617E-06  7.45667846441E-06  7.78364772925E-06  8.11611214758E-06
  8.45416407276E-06  8.79789741029E-06  9.14740764385E-06  9.50279186186E-06
  9.86414878447E-06  1.02315787909E-05  1.06051839474E-05  1.09850680356E-05
  1.13713365813E-05  1.17640968838E-05  1.21634580457E-05  1.25695310033E-05
  1.29824285571E-05  1.34022654036E-05  1.38291581669E-05  1.42632254310E-05
  1.47045877729E-05  1.51533677962E-05  1.56096901648E-05  1.60736816379E-05
  1.65454711050E-05  1.70251896218E-05  1.75129704465E-05  1.80089490768E-05
  1.85132632879E-05  1.90260531702E-05  1.95474611687E-05  2.00776321223E-05
  2.06167133041E-05  2.11648544623E-05  2.17222078620E-05  2.22889283270E-05
  2.28651732834E-05  2.34511028029E-05  2.40468796476E-05  2.46526693146E-05
  2.52686400830E-05  2.58949630597E-05  2.65318122272E-05  2.71793644922E-05
  2.78377997345E-05  2.85073008570E-05  2.91880538366E-05  2.98802477757E-05
  3.05840749548E-05  3.12997308861E-05  3.20274143673E-05  3.27673275376E-05
  3.35196759330E-05  3.42846685442E-05  3.50625178739E-05  3.58534399964E-05
  3.66576546175E-05  3.74753851351E-05  3.83068587021E-05  3.91523062884E-05
  4.00119627463E-05  4.08860668746E-05  4.17748614857E-05  4.26785934726E-05
  4.35975138779E-05  4.45318779631E-05  4.54819452799E-05  4.64479797418E-05
  4.74302496981E-05  4.84290280078E-05  4.94445921158E-05  5.04772241297E-05
  5.15272108984E-05  5.25948440916E-05  5.36804202810E-05  5.47842410225E-05
  5.59066129401E-05  5.70478478109E-05  5.82082626520E-05  5.93881798083E-05
  6.05879270422E-05  6.18078376245E-05  6.30482504270E-05  6.43095100169E-05
  6.55919667522E-05  6.68959768791E-05  6.82219026311E-05  6.95701123292E-05
  7.09409804850E-05  7.23348879040E-05  7.37522217915E-05  7.51933758606E-05
  7.66587504412E-05  7.81487525911E-05  7.96637962094E-05  8.12043021513E-05
  8.27706983450E-05  8.43634199107E-05  8.59829092812E-05  8.76296163251E-05
  8.93039984717E-05  9.10065208378E-05  9.27376563573E-05  9.44978859122E-05
  9.62876984667E-05  9.81075912022E-05  9.99580696563E-05  1.01839647863E-04
  1.03752848494E-04  1.05698203007E-04  1.07676251791E-04  1.09687544317E-04
  1.11732639289E-04  1.13812104802E-04  1.15926518501E-04  1.18076467734E-04
  1.20262549725E-04  1.22485371731E-04  1.24745551219E-04  1.27043716030E-04
  1.29380504558E-04  1.31756565926E-04  1.34172560167E-04  1.36629158405E-04
  1.39127043044E-04  1.41666907958E-04  1.44249458681E-04  1.46875412605E-04
  1.49545499178E-04  1.52260460108E-04  1.55021049568E-04  1.57828034407E-04
  1.60682194360E-04  1.63584322269E-04  1.66535224298E-04  1.69535720161E-04
  1.72586643350E-04  1.75688841361E-04  1.78843175937E-04  1.82050523302E-04
  1.85311774407E-04  1.88627835175E-04  1.91999626756E-04  1.95428085780E-04
  1.98914164620E-04  2.02458831652E-04  2.06063071529E-04  2.09727885453E-04
  2.13454291450E-04  2.17243324657E-04  2.21096037608E-04  2.25013500527E-04
  2.28996801621E-04  2.33047047389E-04  2.37165362926E-04  2.41352892235E-04
  2.45610798544E-04  2.49940264634E-04  2.54342493161E-04  2.58818706995E-04
  2.63370149558E-04  2.67998085169E-04  2.72703799394E-04  2.77488599407E-04
  2.82353814350E-04  2.87300795703E-04  2.92330917659E-04  2.97445577506E-04
  3.02646196016E-04  3.07934217840E-04  3.13311111905E-04  3.18778371828E-04
  3.24337516328E-04  3.29990089647E-04  3.35737661981E-04  3.41581829915E-04
  3.47524216865E-04  3.53566473534E-04  3.59710278365E-04  3.65957338009E-04
  3.72309387802E-04  3.78768192242E-04  3.85335545484E-04  3.92013271834E-04
  3.98803226259E-04  4.05707294901E-04  4.12727395603E-04  4.19865478436E-04
  4.27123526247E-04  4.34503555208E-04  4.42007615374E-04  4.49637791254E-04
  4.57396202391E-04  4.65285003949E-04  4.73306387312E-04  4.81462580694E-04
  4.89755849756E-04  4.98188498239E-04  5.06762868598E-04  5.15481342658E-04
  5.24346342274E-04  5.33360330002E-04  5.42525809786E-04  5.51845327651E-04
  5.61321472413E-04  5.70956876394E-04  5.80754216158E-04  5.90716213251E-04
  6.00845634958E-04  6.11145295074E-04  6.21618054679E-04  6.32266822943E-04
  6.43094557925E-04  6.54104267398E-04  6.65299009686E-04  6.76681894512E-04
  6.88256083860E-04  7.00024792859E-04  7.11991290669E-04  7.24158901395E-04
  7.36531005007E-04  7.49111038280E-04  7.61902495748E-04  7.74908930677E-04
  7.88133956048E-04  8.01581245565E-04  8.15254534673E-04  8.29157621594E-04
  8.43294368388E-04  8.57668702019E-04  8.72284615450E-04  8.87146168751E-04
  9.02257490227E-04  9.17622777564E-04  9.33246298997E-04  9.49132394493E-04
  9.65285476958E-04  9.81710033463E-04  9.98410626492E-04  1.01539189521E-03
  1.03265855673E-03  1.05021540747E-03  1.06806732445E-03  1.08621926664E-03
  1.10467627637E-03  1.12344348071E-03  1.14252609288E-03  1.16192941373E-03
  1.18165883321E-03  1.20171983183E-03  1.22211798221E-03  1.24285895066E-03
  1.26394849867E-03  1.28539248459E-03  1.30719686523E-03  1.32936769749E-03
  1.35191114008E-03  1.37483345521E-03  1.39814101035E-03  1.42184027996E-03
  1.44593784733E-03  1.47044040637E-03  1.49535476351E-03  1.52068783958E-03
  1.54644667169E-03  1.57263841524E-03  1.59927034589E-03  1.62634986156E-03
  1.65388448452E-03  1.68188186345E-03  1.71034977558E-03  1.73929612885E-03
  1.76872896409E-03  1.79865645729E-03  1.82908692183E-03  1.86002881080E-03
  1.89149071939E-03  1.92348138720E-03  1.95600970075E-03  1.98908469588E-03
  2.02271556031E-03  2.05691163616E-03  2.09168242255E-03  2.12703757827E-03
  2.16298692442E-03  2.19954044716E-03  2.23670830047E-03  2.27450080901E-03
  2.31292847093E-03  2.35200196084E-03  2.39173213273E-03  2.43213002301E-03
  2.47320685358E-03  2.51497403494E-03  2.55744316934E-03  2.60062605405E-03
  2.64453468459E-03  2.68918125808E-03  2.73457817664E-03  2.78073805081E-03
  2.82767370307E-03  2.87539817141E-03  2.92392471293E-03  2.97326680755E-03
  3.02343816170E-03  3.07445271221E-03  3.12632463012E-03  3.17906832461E-03
  3.23269844705E-03  3.28722989506E-03  3.34267781659E-03  3.39905761421E-03
  3.45638494934E-03  3.51467574661E-03  3.57394619827E-03  3.63421276872E-03
  3.69549219907E-03  3.75780151177E-03  3.82115801537E-03  3.88557930929E-03
  3.95108328877E-03  4.01768814977E-03  4.08541239407E-03  4.15427483439E-03
  4.22429459963E-03  4.29549114019E-03  4.36788423332E-03  4.44149398870E-03
  4.51634085395E-03  4.59244562034E-03  4.66982942858E-03  4.74851377466E-03
  4.82852051587E-03  4.90987187680E-03  4.99259045558E-03  5.07669923012E-03
  5.16222156451E-03  5.24918121552E-03  5.33760233915E-03  5.42750949739E-03
  5.51892766504E-03  5.61188223662E-03  5.70639903344E-03  5.80250431078E-03
  5.90022476515E-03  5.99958754177E-03  6.10062024204E-03  6.20335093126E-03
  6.30780814637E-03  6.41402090396E-03  6.52201870823E-03  6.63183155929E-03
  6.74348996141E-03  6.85702493152E-03  6.97246800785E-03  7.08985125866E-03
  7.20920729116E-03  7.33056926059E-03  7.45397087936E-03  7.57944642651E-03
  7.70703075716E-03  7.83675931223E-03  7.96866812825E-03  8.10279384742E-03
  8.23917372773E-03  8.37784565337E-03  8.51884814521E-03  8.66222037151E-03
  8.80800215882E-03  8.95623400300E-03  9.10695708054E-03  9.26021325991E-03
  9.41604511327E-03  9.57449592823E-03  9.73560971995E-03  9.89943124328E-03
  1.00660060053E-02  1.02353802777E-02  1.04076011101E-02  1.05827163428E-02
  1.07607746199E-02  1.09418254032E-02  1.11259189859E-02  1.13131065060E-02
  1.15034399615E-02  1.16969722240E-02  1.18937570536E-02  1.20938491140E-02
  1.22973039877E-02  1.25041781913E-02  1.27145291910E-02  1.29284154192E-02
  1.31458962899E-02  1.33670322161E-02  1.35918846256E-02  1.38205159791E-02
  1.40529897866E-02  1.42893706257E-02  1.45297241593E-02  1.47741171538E-02
  1.50226174978E-02  1.52752942206E-02  1.55322175118E-02  1.57934587408E-02
  1.60590904762E-02  1.63291865064E-02  1.66038218596E-02  1.68830728253E-02
  1.71670169750E-02  1.74557331839E-02  1.77493016528E-02  1.80478039303E-02
  1.83513229358E-02  1.86599429819E-02  1.89737497985E-02  1.92928305562E-02
  1.96172738905E-02  1.99471699266E-02  2.02826103045E-02  2.06236882043E-02
  2.09704983719E-02  2.13231371457E-02  2.16817024833E-02  2.20462939885E-02
  2.24170129389E-02  2.27939623145E-02  2.31772468258E-02  2.35669729433E-02
  2.39632489266E-02  2.43661848551E-02  2.47758926579E-02  2.51924861454E-02
  2.56160810406E-02  2.60467950117E-02  2.64847477040E-02  2.69300607740E-02
  2.73828579225E-02  2.78432649296E-02  2.83114096889E-02  2.87874222437E-02
  2.92714348227E-02  2.97635818771E-02  3.02640001175E-02  3.07728285521E-02
  3.12902085255E-02  3.18162837577E-02  3.23512003841E-02  3.28951069960E-02
  3.34481546821E-02  3.40104970704E-02  3.45822903706E-02  3.51636934180E-02
  3.57548677170E-02  3.63559774867E-02  3.69671897057E-02  3.75886741592E-02
  3.82206034857E-02  3.88631532253E-02  3.95165018682E-02  4.01808309041E-02
  4.08563248734E-02  4.15431714174E-02  4.22415613314E-02  4.29516886171E-02
  4.36737505365E-02  4.44079476670E-02  4.51544839572E-02  4.59135667828E-02
  4.66854070053E-02  4.74702190295E-02  4.82682208639E-02  4.90796341807E-02
  4.99046843779E-02  5.07436006412E-02  5.15966160084E-02  5.24639674337E-02
  5.33458958537E-02  5.42426462540E-02  5.51544677378E-02  5.60816135948E-02
  5.70243413713E-02  5.79829129423E-02  5.89575945838E-02  5.99486570471E-02
  6.09563756335E-02  6.19810302714E-02  6.30229055937E-02  6.40822910168E-02
  6.51594808214E-02  6.62547742338E-02  6.73684755091E-02  6.85008940160E-02
  6.96523443224E-02  7.08231462832E-02  7.20136251284E-02  7.32241115545E-02
  7.44549418154E-02  7.57064578163E-02  7.69790072086E-02  7.82729434864E-02
  7.95886260848E-02  8.09264204797E-02  8.22866982891E-02  8.36698373768E-02
  8.50762219570E-02  8.65062427011E-02  8.79602968462E-02  8.94387883058E-02
  9.09421277812E-02  9.24707328766E-02  9.40250282143E-02  9.56054455529E-02
  9.72124239074E-02  9.88464096711E-02  1.00507856739E-01  1.02197226636E-01
  1.03914988641E-01  1.05661619922E-01  1.07437605666E-01  1.09243439212E-01
  1.11079622194E-01  1.12946664674E-01  1.14845085286E-01  1.16775411383E-01
  1.18738179177E-01  1.20733933896E-01  1.22763229928E-01  1.24826630979E-01
  1.26924710230E-01  1.29058050494E-01  1.31227244380E-01  1.33432894454E-01
  1.35675613413E-01  1.37956024247E-01  1.40274760419E-01  1.42632466037E-01
  1.45029796035E-01  1.47467416353E-01  1.49946004123E-01  1.52466247859E-01
  1.55028847643E-01  1.57634515326E-01  1.60283974720E-01  1.62977961805E-01
  1.65717224927E-01  1.68502525009E-01  1.71334635765E-01  1.74214343910E-01
  1.77142449382E-01  1.80119765562E-01  1.83147119501E-01  1.86225352150E-01
  1.89355318595E-01  1.92537888289E-01  1.95773945301E-01  1.99064388557E-01
  2.02410132089E-01  2.05812105292E-01  2.09271253181E-01  2.12788536652E-01
  2.16364932752E-01  2.20001434945E-01  2.23699053396E-01  2.27458815245E-01
  2.31281764893E-01  2.35168964296E-01  2.39121493256E-01  2.43140449724E-01
  2.47226950102E-01  2.51382129556E-01  2.55607142329E-01  2.59903162061E-01
  2.64271382121E-01  2.68713015931E-01  2.73229297305E-01  2.77821480797E-01
  2.82490842042E-01  2.87238678114E-01  2.92066307888E-01  2.96975072403E-01
  3.01966335236E-01  3.07041482881E-01  3.12201925135E-01  3.17449095486E-01
  3.22784451515E-01  3.28209475301E-01  3.33725673828E-01  3.39334579411E-01
  3.45037750114E-01  3.50836770188E-01  3.56733250509E-01  3.62728829027E-01
  3.68825171218E-01  3.75023970550E-01  3.81326948952E-01  3.87735857291E-01
  3.94252475861E-01  4.00878614876E-01  4.07616114972E-01  4.14466847721E-01
  4.21432716148E-01  4.28515655261E-01  4.35717632589E-01  4.43040648727E-01
  4.50486737894E-01  4.58057968495E-01  4.65756443700E-01  4.73584302022E-01
  4.81543717917E-01  4.89636902386E-01  4.97866103587E-01  5.06233607461E-01
  5.14741738371E-01  5.23392859739E-01  5.32189374712E-01  5.41133726821E-01
  5.50228400667E-01  5.59475922607E-01  5.68878861455E-01  5.78439829200E-01
  5.88161481728E-01  5.98046519560E-01  6.08097688604E-01  6.18317780916E-01
  6.28709635476E-01  6.39276138976E-01  6.50020226626E-01  6.60944882962E-01
  6.72053142682E-01  6.83348091485E-01  6.94832866929E-01  7.06510659304E-01
  7.18384712516E-01  7.30458324988E-01  7.42734850581E-01  7.55217699519E-01
  7.67910339341E-01  7.80816295861E-01  7.93939154150E-01  8.07282559531E-01
  8.20850218591E-01  8.34645900213E-01  8.48673436617E-01  8.62936724433E-01
  8.77439725776E-01  8.92186469351E-01  9.07181051571E-01  9.22427637694E-01
  9.37930462980E-01  9.53693833870E-01  9.69722129179E-01  9.86019801315E-01
  1.00259137751E+00  1.01944146110E+00  1.03657473275E+00  1.05399595183E+00
  1.07170995767E+00  1.08972167095E+00  1.10803609503E+00  1.12665831737E+00
  1.14559351094E+00  1.16484693562E+00  1.18442393972E+00  1.20432996142E+00
  1.22457053029E+00  1.24515126885E+00  1.26607789411E+00  1.28735621914E+00
  1.30899215474E+00  1.33099171101E+00  1.35336099910E+00  1.37610623283E+00
  1.39923373048E+00  1.42274991649E+00  1.44666132329E+00  1.47097459310E+00
  1.49569647975E+00  1.52083385060E+00  1.54639368840E+00  1.57238309328E+00
  1.59880928469E+00  1.62567960341E+00  1.65300151357E+00  1.68078260479E+00
  1.70903059420E+00  1.73775332866E+00  1.76695878688E+00  1.79665508168E+00
  1.82685046223E+00  1.85755331631E+00  1.88877217270E+00  1.92051570351E+00
  1.95279272659E+00  1.98561220798E+00  2.01898326441E+00  2.05291516585E+00
  2.08741733803E+00  2.12249936512E+00  2.15817099234E+00  2.19444212872E+00
  2.23132284980E+00  2.26882340046E+00  2.30695419777E+00  2.34572583385E+00
  2.38514907886E+00  2.42523488395E+00  2.46599438432E+00  2.50743890232E+00
  2.54957995059E+00  2.59242923524E+00  2.63599865912E+00  2.68030032513E+00
  2.72534653958E+00  2.77114981559E+00  2.81772287659E+00  2.86507865984E+00
  2.91323032003E+00  2.96219123293E+00  3.01197499911E+00  3.06259544771E+00
  3.11406664029E+00  3.16640287474E+00  3.21961868924E+00  3.27372886630E+00
  3.32874843687E+00  3.38469268452E+00  3.44157714969E+00  3.49941763396E+00
  3.55823020453E+00  3.61803119859E+00  3.67883722791E+00  3.74066518345E+00
  3.80353224003E+00  3.86745586114E+00  3.93245380375E+00  3.99854412326E+00
  4.06574517850E+00  4.13407563689E+00  4.20355447954E+00  4.27420100657E+00
  4.34603484247E+00  4.41907594155E+00  4.49334459348E+00  4.56886142890E+00
  4.64564742522E+00  4.72372391235E+00  4.80311257873E+00  4.88383547726E+00
  4.96591503149E+00  5.04937404183E+00  5.13423569187E+00  5.22052355484E+00
  5.30826160014E+00  5.39747420002E+00  5.48818613633E+00  5.58042260741E+00
  5.67420923509E+00  5.76957207183E+00  5.86653760790E+00  5.96513277881E+00
  6.06538497274E+00  6.16732203816E+00  6.27097229159E+00  6.37636452541E+00
  6.48352801594E+00  6.59249253149E+00  6.70328834070E+00  6.81594622087E+00
  6.93049746661E+00  7.04697389842E+00  7.16540787163E+00  7.28583228532E+00
  7.40828059150E+00  7.53278680436E+00  7.65938550978E+00  7.78811187486E+00
  7.91900165776E+00  8.05209121760E+00  8.18741752456E+00  8.32501817014E+00
  8.46493137762E+00  8.60719601270E+00  8.75185159424E+00  8.89893830528E+00
  9.04849700417E+00  9.20056923597E+00  9.35519724394E+00  9.51242398130E+00
  9.67229312316E+00  9.83484907863E+00  1.00001370032E+01  1.01682028112E+01
  1.03390931888E+01  1.05128556064E+01  1.06895383327E+01  1.08691904473E+01
  1.10518618546E+01  1.12376032979E+01  1.14264663734E+01  1.16185035440E+01
  1.18137681548E+01  1.20123144472E+01  1.22141975742E+01  1.24194736157E+01
  1.26281995941E+01  1.28404334903E+01  1.30562342595E+01  1.32756618477E+01
  1.34987772085E+01  1.37256423197E+01  1.39563202010E+01  1.41908749309E+01
  1.44293716651E+01  1.46718766542E+01  1.49184572623E+01  1.51691819855E+01
  1.54241204713E+01  1.56833435375E+01  1.59469231922E+01  1.62149326537E+01
  1.64874463707E+01  1.67645400433E+01  1.70462906437E+01  1.73327764378E+01
  1.76240770067E+01  1.79202732693E+01  1.82214475041E+01  1.85276833727E+01
  1.88390659424E+01  1.91556817104E+01  1.94776186277E+01  1.98049661231E+01
  2.01378151287E+01  2.04762581047E+01  2.08203890651E+01  2.11703036042E+01
  2.15260989226E+01  2.18878738546E+01  2.22557288957E+01  2.26297662302E+01
  2.30100897597E+01  2.33968051320E+01  2.37900197707E+01  2.41898429045E+01
  2.45963855980E+01  2.50097607823E+01  2.54300832866E+01  2.58574698697E+01
  2.62920392529E+01  2.67339121528E+01  2.71832113146E+01  2.76400615466E+01
  2.81045897545E+01  2.85769249769E+01  2.90571984211E+01  2.95455434995E+01
  3.00420958667E+01  3.05469934570E+01  3.10603765230E+01  3.15823876744E+01
  3.21131719177E+01  3.26528766963E+01  3.32016519318E+01  3.37596500652E+01
  3.43270260995E+01  3.49039376430E+01  3.54905449525E+01  3.60870109782E+01
  3.66935014090E+01  3.73101847183E+01  3.79372322111E+01  3.85748180713E+01
  3.92231194100E+01  3.98823163152E+01  4.05525919014E+01  4.12341323606E+01
  4.19271270139E+01  4.26317683643E+01  4.33482521500E+01  4.40767773990E+01
  4.48175464840E+01  4.55707651789E+01  4.63366427161E+01  4.71153918442E+01
  4.79072288875E+01  4.87123738057E+01  4.95310502555E+01  5.03634856521E+01
  5.12099112330E+01  5.20705621219E+01  5.29456773940E+01  5.38355001424E+01
  5.47402775460E+01  5.56602609375E+01  5.65957058738E+01  5.75468722068E+01
  5.85140241555E+01  5.94974303793E+01  6.04973640531E+01  6.15141029425E+01
  6.25479294816E+01  6.35991308511E+01  6.46679990581E+01  6.57548310174E+01
  6.68599286336E+01  6.79835988854E+01  6.91261539108E+01  7.02879110934E+01
  7.14691931511E+01  7.26703282253E+01  7.38916499723E+01  7.51334976562E+01
  7.63962162425E+01  7.76801564946E+01  7.89856750708E+01  8.03131346234E+01
  8.16629038999E+01  8.30353578448E+01  8.44308777042E+01  8.58498511313E+01
  8.72926722947E+01  8.87597419872E+01  9.02514677377E+01  9.17682639240E+01
  9.33105518881E+01  9.48787600533E+01  9.64733240431E+01  9.80946868021E+01
  9.97432987192E+01  1.01419617753E+02  1.03124109558E+02  1.04857247616E+02
  1.06619513364E+02  1.08411396333E+02  1.10233394279E+02  1.12086013325E+02
  1.13969768098E+02  1.15885181876E+02  1.17832786732E+02  1.19813123677E+02
  1.21826742820E+02  1.23874203512E+02  1.25956074504E+02  1.28072934108E+02
  1.30225370353E+02  1.32413981154E+02  1.34639374471E+02  1.36902168483E+02
  1.39202991758E+02  1.41542483430E+02  1.43921293372E+02  1.46340082380E+02
  1.48799522355E+02  1.51300296490E+02  1.53843099462E+02
  </PP_R>
  <PP_RAB>
  1.99974115253E-07  2.03334946303E-07  2.06752260589E-07  2.10227007389E-07
  2.13760151931E-07  2.17352675668E-07  2.21005576546E-07  2.24719869282E-07
  2.28496585650E-07  2.32336774760E-07  2.36241503358E-07  2.40211856114E-07
  2.44248935931E-07  2.48353864245E-07  2.52527781340E-07  2.56771846665E-07
  2.61087239154E-07  2.65475157555E-07  2.69936820762E-07  2.74473468155E-07
  2.79086359943E-07  2.83776777514E-07  2.88546023793E-07  2.93395423601E-07
  2.98326324024E-07  3.03340094788E-07  3.08438128641E-07  3.13621841734E-07
  3.18892674023E-07  3.24252089660E-07  3.29701577407E-07  3.35242651046E-07
  3.40876849799E-07  3.46605738758E-07  3.52430909317E-07  3.58353979618E-07
  3.64376594994E-07  3.70500428435E-07  3.76727181043E-07  3.83058582513E-07
  3.89496391608E-07  3.96042396650E-07  4.02698416015E-07  4.09466298641E-07
  4.16347924538E-07  4.23345205313E-07  4.30460084701E-07  4.37694539103E-07
  4.45050578135E-07  4.52530245190E-07  4.60135618000E-07  4.67868809219E-07
  4.75731967004E-07  4.83727275617E-07  4.91856956028E-07  5.00123266533E-07
  5.08528503385E-07  5.17075001423E-07  5.25765134732E-07  5.34601317292E-07
  5.43586003655E-07  5.52721689626E-07  5.62010912953E-07  5.71456254037E-07
  5.81060336644E-07  5.90825828636E-07  6.00755442712E-07  6.10851937164E-07
  6.21118116637E-07  6.31556832914E-07  6.42170985706E-07  6.52963523456E-07
  6.63937444161E-07  6.75095796204E-07  6.86441679197E-07  6.97978244849E-07
  7.09708697834E-07  7.21636296688E-07  7.33764354709E-07  7.46096240880E-07
  7.58635380804E-07  7.71385257656E-07  7.84349413151E-07  7.97531448527E-07
  8.10935025545E-07  8.24563867506E-07  8.38421760287E-07  8.52512553394E-07
  8.66840161025E-07  8.81408563163E-07  8.96221806681E-07  9.11284006463E-07
  9.26599346551E-07  9.42172081305E-07  9.58006536584E-07  9.74107110951E-07
  9.90478276889E-07  1.00712458205E-06  1.02405065052E-06  1.04126118408E-06
  1.05876096356E-06  1.07655485011E-06  1.09464778660E-06  1.11304479896E-06
  1.13175099759E-06  1.15077157877E-06  1.17011182612E-06  1.18977711206E-06
  1.20977289929E-06  1.23010474233E-06  1.25077828904E-06  1.27179928220E-06
  1.29317356112E-06  1.31490706324E-06  1.33700582577E-06  1.35947598741E-06
  1.38232379000E-06  1.40555558032E-06  1.42917781178E-06  1.45319704626E-06
  1.47761995594E-06  1.50245332510E-06  1.52770405208E-06  1.55337915111E-06
  1.57948575434E-06  1.60603111376E-06  1.63302260327E-06  1.66046772067E-06
  1.68837408978E-06  1.71674946255E-06  1.74560172121E-06  1.77493888046E-06
  1.80476908970E-06  1.83510063529E-06  1.86594194286E-06  1.89730157963E-06
  1.92918825682E-06  1.96161083204E-06  1.99457831178E-06  2.02809985386E-06
  2.06218477006E-06  2.09684252863E-06  2.13208275693E-06  2.16791524416E-06
  2.20434994400E-06  2.24139697744E-06  2.27906663557E-06  2.31736938242E-06
  2.35631585789E-06  2.39591688069E-06  2.43618345137E-06  2.47712675533E-06
  2.51875816599E-06  2.56108924789E-06  2.60413175994E-06  2.64789765867E-06
  2.69239910155E-06  2.73764845038E-06  2.78365827472E-06  2.83044135537E-06
  2.87801068793E-06  2.92637948640E-06  2.97556118689E-06  3.02556945128E-06
  3.07641817108E-06  3.12812147127E-06  3.18069371421E-06  3.23414950362E-06
  3.28850368870E-06  3.34377136817E-06  3.39996789452E-06  3.45710887826E-06
  3.51521019225E-06  3.57428797611E-06  3.63435864074E-06  3.69543887280E-06
  3.75754563941E-06  3.82069619287E-06  3.88490807539E-06  3.95019912403E-06
  4.01658747560E-06  4.08409157174E-06  4.15273016402E-06  4.22252231916E-06
  4.29348742432E-06  4.36564519249E-06  4.43901566794E-06  4.51361923184E-06
  4.58947660789E-06  4.66660886807E-06  4.74503743849E-06  4.82478410537E-06
  4.90587102109E-06  4.98832071030E-06  5.07215607623E-06  5.15740040702E-06
  5.24407738219E-06  5.33221107925E-06  5.42182598034E-06  5.51294697906E-06
  5.60559938739E-06  5.69980894271E-06  5.79560181494E-06  5.89300461383E-06
  5.99204439634E-06  6.09274867415E-06  6.19514542133E-06  6.29926308207E-06
  6.40513057862E-06  6.51277731929E-06  6.62223320665E-06  6.73352864581E-06
  6.84669455290E-06  6.96176236361E-06  7.07876404196E-06  7.19773208918E-06
  7.31869955270E-06  7.44170003538E-06  7.56676770481E-06  7.69393730282E-06
  7.82324415510E-06  7.95472418106E-06  8.08841390378E-06  8.22435046015E-06
  8.36257161119E-06  8.50311575257E-06  8.64602192522E-06  8.79132982622E-06
  8.93907981982E-06  9.08931294862E-06  9.24207094502E-06  9.39739624277E-06
  9.55533198880E-06  9.71592205515E-06  9.87921105122E-06  1.00452443361E-05
  1.02140680312E-05  1.03857290331E-05  1.05602750266E-05  1.07377544976E-05
  1.09182167473E-05  1.11017119052E-05  1.12882909434E-05  1.14780056904E-05
  1.16709088463E-05  1.18670539962E-05  1.20664956264E-05  1.22692891385E-05
  1.24754908654E-05  1.26851580866E-05  1.28983490444E-05  1.31151229599E-05
  1.33355400494E-05  1.35596615413E-05  1.37875496931E-05  1.40192678085E-05
  1.42548802551E-05  1.44944524822E-05  1.47380510394E-05  1.49857435944E-05
  1.52375989524E-05  1.54936870747E-05  1.57540790985E-05  1.60188473568E-05
  1.62880653979E-05  1.65618080063E-05  1.68401512235E-05  1.71231723687E-05
  1.74109500608E-05  1.77035642398E-05  1.80010961895E-05  1.83036285593E-05
  1.86112453882E-05  1.89240321271E-05  1.92420756632E-05  1.95654643441E-05
  1.98942880021E-05  2.02286379790E-05  2.05686071522E-05  2.09142899596E-05
  2.12657824264E-05  2.16231821918E-05  2.19865885357E-05  2.23561024067E-05
  2.27318264499E-05  2.31138650355E-05  2.35023242878E-05  2.38973121146E-05
  2.42989382374E-05  2.47073142214E-05  2.51225535072E-05  2.55447714416E-05
  2.59740853100E-05  2.64106143692E-05  2.68544798800E-05  2.73058051413E-05
  2.77647155239E-05  2.82313385061E-05  2.87058037083E-05  2.91882429294E-05
  2.96787901835E-05  3.01775817368E-05  3.06847561457E-05  3.12004542953E-05
  3.17248194384E-05  3.22579972353E-05  3.28001357944E-05  3.33513857133E-05
  3.39119001205E-05  3.44818347179E-05  3.50613478245E-05  3.56506004198E-05
  3.62497561889E-05  3.68589815679E-05  3.74784457898E-05  3.81083209321E-05
  3.87487819642E-05  3.94000067959E-05  4.00621763274E-05  4.07354744987E-05
  4.14200883416E-05  4.21162080309E-05  4.28240269377E-05  4.35437416828E-05
  4.42755521918E-05  4.50196617500E-05  4.57762770592E-05  4.65456082953E-05
  4.73278691664E-05  4.81232769721E-05  4.89320526641E-05  4.97544209077E-05
  5.05906101436E-05  5.14408526521E-05  5.23053846172E-05  5.31844461920E-05
  5.40782815661E-05  5.49871390329E-05  5.59112710584E-05  5.68509343522E-05
  5.78063899377E-05  5.87779032254E-05  5.97657440864E-05  6.07701869273E-05
  6.17915107664E-05  6.28299993114E-05  6.38859410380E-05  6.49596292702E-05
  6.60513622614E-05  6.71614432781E-05  6.82901806830E-05  6.94378880217E-05
  7.06048841091E-05  7.17914931184E-05  7.29980446706E-05  7.42248739269E-05
  7.54723216810E-05  7.67407344542E-05  7.80304645915E-05  7.93418703596E-05
  8.06753160464E-05  8.20311720619E-05  8.34098150415E-05  8.48116279505E-05
  8.62370001905E-05  8.76863277072E-05  8.91600131010E-05  9.06584657384E-05
  9.21821018659E-05  9.37313447256E-05  9.53066246726E-05  9.69083792949E-05
  9.85370535345E-05  1.00193099811E-04  1.01876978149E-04  1.03589156303E-04
  1.05330109888E-04  1.07100322515E-04  1.08900285919E-04  1.10730500103E-04
  1.12591473472E-04  1.14483722974E-04  1.16407774246E-04  1.18364161760E-04
  1.20353428968E-04  1.22376128458E-04  1.24432822105E-04  1.26524081224E-04
  1.28650486735E-04  1.30812629319E-04  1.33011109586E-04  1.35246538239E-04
  1.37519536244E-04  1.39830735005E-04  1.42180776535E-04  1.44570313640E-04
  1.47000010096E-04  1.49470540832E-04  1.51982592124E-04  1.54536861780E-04
  1.57134059336E-04  1.59774906252E-04  1.62460136114E-04  1.65190494837E-04
  1.67966740869E-04  1.70789645410E-04  1.73659992618E-04  1.76578579829E-04
  1.79546217780E-04  1.82563730836E-04  1.85631957213E-04  1.88751749216E-04
  1.91923973474E-04  1.95149511182E-04  1.98429258341E-04  2.01764126015E-04
  2.05155040577E-04  2.08602943969E-04  2.12108793965E-04  2.15673564435E-04
  2.19298245614E-04  2.22983844383E-04  2.26731384542E-04  2.30541907100E-04
  2.34416470559E-04  2.38356151211E-04  2.42362043438E-04  2.46435260013E-04
  2.50576932411E-04  2.54788211125E-04  2.59070265979E-04  2.63424286463E-04
  2.67851482053E-04  2.72353082554E-04  2.76930338442E-04  2.81584521203E-04
  2.86316923698E-04  2.91128860513E-04  2.96021668328E-04  3.00996706287E-04
  3.06055356379E-04  3.11199023814E-04  3.16429137424E-04  3.21747150052E-04
  3.27154538956E-04  3.32652806225E-04  3.38243479191E-04  3.43928110853E-04
  3.49708280313E-04  3.55585593211E-04  3.61561682171E-04  3.67638207257E-04
  3.73816856430E-04  3.80099346024E-04  3.86487421212E-04  3.92982856503E-04
  3.99587456226E-04  4.06303055034E-04  4.13131518413E-04  4.20074743205E-04
  4.27134658126E-04  4.34313224310E-04  4.41612435849E-04  4.49034320348E-04
  4.56580939491E-04  4.64254389608E-04  4.72056802263E-04  4.79990344843E-04
  4.88057221161E-04  4.96259672067E-04  5.04599976073E-04  5.13080449984E-04
  5.21703449541E-04  5.30471370078E-04  5.39386647184E-04  5.48451757382E-04
  5.57669218818E-04  5.67041591955E-04  5.76571480292E-04  5.86261531081E-04
  5.96114436066E-04  6.06132932226E-04  6.16319802543E-04  6.26677876768E-04
  6.37210032211E-04  6.47919194538E-04  6.58808338585E-04  6.69880489184E-04
  6.81138722005E-04  6.92586164406E-04  7.04225996306E-04  7.16061451066E-04
  7.28095816390E-04  7.40332435233E-04  7.52774706735E-04  7.65426087163E-04
  7.78290090870E-04  7.91370291273E-04  8.04670321846E-04  8.18193877127E-04