<PP_INFO>
Generated using Vanderbilt code, version   7  3  4                              
Author: unknown    Generation date:    4    3    5                              
Automatically converted from original format                                    
    1        The Pseudo was generated with a Scalar-Relativistic Calculation
  1.70000000000E+00    Local Potential cutoff radius
nl pn  l   occ               Rcut            Rcut US             E pseu
3S  3  0  2.00     10.00000000000      1.70000000000     -1.01585150374
3P  3  1  3.00     10.00000000000      1.70000000000     -0.39260451579
</PP_INFO>


<PP_HEADER>
   0                   Version Number
  P                    Element
   US                  Ultrasoft pseudopotential
    F                  Nonlinear Core Correction
 SLA  LYP  B88  BLYP   BLYP Exchange-Correlation functional
    5.00000000000      Z valence
  -12.77849278720      Total energy
  0.0000000  0.0000000 Suggested cutoff for wfc and rho
    2                  Max angular momentum component
  807                  Number of points in mesh
    2    6             Number of Wavefunctions, Number of Projectors
 Wavefunctions         nl  l   occ
                       3S  0  2.00
                       3P  1  3.00
</PP_HEADER>


<PP_MESH>
  <PP_R>
  0.00000000000E+00  2.82472060533E-06  5.69772586719E-06  8.61984114440E-06
  1.15919059041E-05  1.46147739631E-05  1.76893137327E-05  2.08164084689E-05
  2.39969565253E-05  2.72318716120E-05  3.05220830573E-05  3.38685360755E-05
  3.72721920376E-05  4.07340287483E-05  4.42550407261E-05  4.78362394897E-05
  5.14786538482E-05  5.51833301968E-05  5.89513328172E-05  6.27837441838E-05
  6.66816652741E-05  7.06462158854E-05  7.46785349565E-05  7.87797808945E-05
  8.29511319081E-05  8.71937863457E-05  9.15089630398E-05  9.58979016571E-05
  1.00361863055E-04  1.04902129643E-04  1.09520005751E-04  1.14216818008E-04
  1.18993915714E-04  1.23852671239E-04  1.28794480409E-04  1.33820762909E-04
  1.38932962695E-04  1.44132548400E-04  1.49421013767E-04  1.54799878069E-04
  1.60270686549E-04  1.65835010865E-04  1.71494449540E-04  1.77250628420E-04
  1.83105201145E-04  1.89059849619E-04  1.95116284499E-04  2.01276245681E-04
  2.07541502803E-04  2.13913855751E-04  2.20395135179E-04  2.26987203034E-04
  2.33691953089E-04  2.40511311488E-04  2.47447237303E-04  2.54501723089E-04
  2.61676795465E-04  2.68974515689E-04  2.76396980255E-04  2.83946321495E-04
  2.91624708187E-04  2.99434346183E-04  3.07377479042E-04  3.15456388671E-04
  3.23673395985E-04  3.32030861572E-04  3.40531186369E-04  3.49176812356E-04
  3.57970223252E-04  3.66913945236E-04  3.76010547665E-04  3.85262643817E-04
  3.94672891641E-04  4.04243994518E-04  4.13978702041E-04  4.23879810804E-04
  4.33950165202E-04  4.44192658255E-04  4.54610232432E-04  4.65205880501E-04
  4.75982646385E-04  4.86943626043E-04  4.98091968350E-04  5.09430876011E-04
  5.20963606473E-04  5.32693472867E-04  5.44623844957E-04  5.56758150107E-04
  5.69099874269E-04  5.81652562982E-04  5.94419822389E-04  6.07405320278E-04
  6.20612787130E-04  6.34046017196E-04  6.47708869582E-04  6.61605269361E-04
  6.75739208701E-04  6.90114748008E-04  7.04736017097E-04  7.19607216376E-04
  7.34732618052E-04  7.50116567360E-04  7.65763483811E-04  7.81677862462E-04
  7.97864275206E-04  8.14327372086E-04  8.31071882631E-04  8.48102617214E-04
  8.65424468438E-04  8.83042412533E-04  9.00961510794E-04  9.19186911033E-04
  9.37723849052E-04  9.56577650157E-04  9.75753730679E-04  9.95257599535E-04
  1.01509485981E-03  1.03527121036E-03  1.05579244747E-03  1.07666446649E-03
  1.09789326354E-03  1.11948493725E-03  1.14144569049E-03  1.16378183216E-03
  1.18649977899E-03  1.20960605743E-03  1.23310730544E-03  1.25701027449E-03
  1.28132183144E-03  1.30604896052E-03  1.33119876537E-03  1.35677847103E-03
  1.38279542606E-03  1.40925710462E-03  1.43617110865E-03  1.46354517002E-03
  1.49138715276E-03  1.51970505535E-03  1.54850701295E-03  1.57780129983E-03
  1.60759633165E-03  1.63790066796E-03  1.66872301461E-03  1.70007222626E-03
  1.73195730893E-03  1.76438742259E-03  1.79737188378E-03  1.83092016830E-03
  1.86504191392E-03  1.89974692317E-03  1.93504516611E-03  1.97094678326E-03
  2.00746208844E-03  2.04460157181E-03  2.08237590281E-03  2.12079593328E-03
  2.15987270056E-03  2.19961743063E-03  2.24004154140E-03  2.28115664592E-03
  2.32297455577E-03  2.36550728444E-03  2.40876705073E-03  2.45276628236E-03
  2.49751761945E-03  2.54303391819E-03  2.58932825454E-03  2.63641392795E-03
  2.68430446524E-03  2.73301362443E-03  2.78255539871E-03  2.83294402049E-03
  2.88419396543E-03  2.93631995665E-03  2.98933696895E-03  3.04326023308E-03
  3.09810524015E-03  3.15388774608E-03  3.21062377610E-03  3.26832962936E-03
  3.32702188366E-03  3.38671740013E-03  3.44743332814E-03  3.50918711020E-03
  3.57199648699E-03  3.63587950241E-03  3.70085450883E-03  3.76694017230E-03
  3.83415547796E-03  3.90251973546E-03  3.97205258453E-03  4.04277400062E-03
  4.11470430062E-03  4.18786414870E-03  4.26227456229E-03  4.33795691805E-03
  4.41493295806E-03  4.49322479604E-03  4.57285492373E-03  4.65384621732E-03
  4.73622194404E-03  4.82000576884E-03  4.90522176120E-03  4.99189440202E-03
  5.08004859067E-03  5.16970965215E-03  5.26090334434E-03  5.35365586543E-03
  5.44799386142E-03  5.54394443379E-03  5.64153514729E-03  5.74079403783E-03
  5.84174962059E-03  5.94443089813E-03  6.04886736881E-03  6.15508903520E-03
  6.26312641274E-03  6.37301053847E-03  6.48477297997E-03  6.59844584443E-03
  6.71406178786E-03  6.83165402450E-03  6.95125633630E-03  7.07290308271E-03
  7.19662921047E-03  7.32247026372E-03  7.45046239414E-03  7.58064237141E-03
  7.71304759371E-03  7.84771609849E-03  7.98468657342E-03  8.12399836747E-03
  8.26569150220E-03  8.40980668332E-03  8.55638531234E-03  8.70546949845E-03
  8.85710207066E-03  9.01132659007E-03  9.16818736241E-03  9.32772945073E-03
  9.48999868839E-03  9.65504169220E-03  9.82290587583E-03  9.99363946340E-03
  1.01672915034E-02  1.03439118826E-02  1.05235513408E-02  1.07062614847E-02
  1.08920948036E-02  1.10811046837E-02  1.12733454239E-02  1.14688722513E-02
  1.16677413370E-02  1.18700098121E-02  1.20757357845E-02  1.22849783553E-02
  1.24977976358E-02  1.27142547648E-02  1.29344119265E-02  1.31583323675E-02
  1.33860804160E-02  1.36177214995E-02  1.38533221641E-02  1.40929500932E-02
  1.43366741273E-02  1.45845642837E-02  1.48366917763E-02  1.50931290365E-02
  1.53539497339E-02  1.56192287970E-02  1.58890424355E-02  1.61634681615E-02
  1.64425848124E-02  1.67264725729E-02  1.70152129984E-02  1.73088890386E-02
  1.76075850608E-02  1.79113868746E-02  1.82203817565E-02  1.85346584746E-02
  1.88543073146E-02  1.91794201054E-02  1.95100902457E-02  1.98464127305E-02
  2.01884841788E-02  2.05364028611E-02  2.08902687277E-02  2.12501834375E-02
  2.16162503869E-02  2.19885747400E-02  2.23672634582E-02  2.27524253316E-02
  2.31441710096E-02  2.35426130333E-02  2.39478658673E-02  2.43600459330E-02
  2.47792716416E-02  2.52056634286E-02  2.56393437882E-02  2.60804373082E-02
  2.65290707064E-02  2.69853728664E-02  2.74494748750E-02  2.79215100598E-02
  2.84016140272E-02  2.88899247019E-02  2.93865823661E-02  2.98917297000E-02
  3.04055118225E-02  3.09280763334E-02  3.14595733552E-02  3.20001555769E-02
  3.25499782973E-02  3.31091994697E-02  3.36779797476E-02  3.42564825305E-02
  3.48448740112E-02  3.54433232230E-02  3.60520020890E-02  3.66710854706E-02
  3.73007512187E-02  3.79411802239E-02  3.85925564692E-02  3.92550670824E-02
  3.99289023899E-02  4.06142559715E-02  4.13113247161E-02  4.20203088781E-02
  4.27414121349E-02  4.34748416454E-02  4.42208081099E-02  4.49795258300E-02
  4.57512127706E-02  4.65360906225E-02  4.73343848659E-02  4.81463248353E-02
  4.89721437853E-02  4.98120789577E-02  5.06663716497E-02  5.15352672830E-02
  5.24190154745E-02  5.33178701079E-02  5.42320894069E-02  5.51619360088E-02
  5.61076770408E-02  5.70695841958E-02  5.80479338111E-02  5.90430069477E-02
  6.00550894709E-02  6.10844721323E-02  6.21314506537E-02  6.31963258117E-02
  6.42794035244E-02  6.53809949391E-02  6.65014165216E-02  6.76409901473E-02
  6.88000431938E-02  6.99789086345E-02  7.11779251347E-02  7.23974371486E-02
  7.36377950185E-02  7.48993550750E-02  7.61824797401E-02  7.74875376305E-02
  7.88149036643E-02  8.01649591679E-02  8.15380919861E-02  8.29346965936E-02
  8.43551742077E-02  8.57999329041E-02  8.72693877342E-02  8.87639608437E-02
  9.02840815948E-02  9.18301866886E-02  9.34027202912E-02  9.50021341610E-02
  9.66288877789E-02  9.82834484795E-02  9.99662915861E-02  1.01677900547E-01
  1.03418767074E-01  1.05189391286E-01  1.06990281846E-01  1.08821956118E-01
  1.10684940305E-01  1.12579769607E-01  1.14506988371E-01  1.16467150250E-01
  1.18460818361E-01  1.20488565446E-01  1.22550974038E-01  1.24648636626E-01
  1.26782155828E-01  1.28952144564E-01  1.31159226228E-01  1.33404034874E-01
  1.35687215390E-01  1.38009423691E-01  1.40371326902E-01  1.42773603551E-01
  1.45216943768E-01  1.47702049476E-01  1.50229634597E-01  1.52800425258E-01
  1.55415159999E-01  1.58074589980E-01  1.60779479205E-01  1.63530604737E-01
  1.66328756920E-01  1.69174739609E-01  1.72069370401E-01  1.75013480866E-01
  1.78007916791E-01  1.81053538419E-01  1.84151220698E-01  1.87301853532E-01
  1.90506342038E-01  1.93765606803E-01  1.97080584150E-01  2.00452226408E-01
  2.03881502185E-01  2.07369396646E-01  2.10916911795E-01  2.14525066764E-01
  2.18194898107E-01  2.21927460095E-01  2.25723825021E-01  2.29585083507E-01
  2.33512344818E-01  2.37506737180E-01  2.41569408105E-01  2.45701524720E-01
  2.49904274101E-01  2.54178863618E-01  2.58526521276E-01  2.62948496075E-01
  2.67446058362E-01  2.72020500198E-01  2.76673135734E-01  2.81405301582E-01
  2.86218357200E-01  2.91113685286E-01  2.96092692175E-01  3.01156808237E-01
  3.06307488296E-01  3.11546212042E-01  3.16874484460E-01  3.22293836258E-01
  3.27805824311E-01  3.33412032108E-01  3.39114070204E-01  3.44913576682E-01
  3.50812217630E-01  3.56811687613E-01  3.62913710162E-01  3.69120038270E-01
  3.75432454896E-01  3.81852773475E-01  3.88382838439E-01  3.95024525750E-01
  4.01779743437E-01  4.08650432142E-01  4.15638565682E-01  4.22746151613E-01
  4.29975231805E-01  4.37327883034E-01  4.44806217574E-01  4.52412383807E-01
  4.60148566835E-01  4.68016989117E-01  4.76019911095E-01  4.84159631856E-01
  4.92438489784E-01  5.00858863233E-01  5.09423171215E-01  5.18133874090E-01
  5.26993474274E-01  5.36004516958E-01  5.45169590840E-01  5.54491328870E-01
  5.63972409002E-01  5.73615554967E-01  5.83423537054E-01  5.93399172907E-01
  6.03545328333E-01  6.13864918125E-01  6.24360906903E-01  6.35036309960E-01
  6.45894194135E-01  6.56937678685E-01  6.68169936192E-01  6.79594193465E-01
  6.91213732472E-01  7.03031891282E-01  7.15052065023E-01  7.27277706859E-01
  7.39712328979E-01  7.52359503611E-01  7.65222864043E-01  7.78306105669E-01
  7.91612987051E-01  8.05147331000E-01  8.18913025669E-01  8.32914025678E-01
  8.47154353241E-01  8.61638099330E-01  8.76369424845E-01  8.91352561810E-01
  9.06591814591E-01  9.22091561131E-01  9.37856254205E-01  9.53890422707E-01
  9.70198672941E-01  9.86785689953E-01  1.00365623887E+00  1.02081516628E+00
  1.03826740160E+00  1.05601795854E+00  1.07407193646E+00  1.09243452195E+00
  1.11111099021E+00  1.13010670662E+00  1.14942712830E+00  1.16907780562E+00
  1.18906438385E+00  1.20939260474E+00  1.23006830819E+00  1.25109743394E+00
  1.27248602325E+00  1.29424022064E+00  1.31636627567E+00  1.33887054473E+00
  1.36175949287E+00  1.38503969563E+00  1.40871784097E+00  1.43280073116E+00
  1.45729528474E+00  1.48220853853E+00  1.50754764963E+00  1.53331989746E+00
  1.55953268591E+00  1.58619354539E+00  1.61331013506E+00  1.64089024498E+00
  1.66894179839E+00  1.69747285396E+00  1.72649160810E+00  1.75600639734E+00
  1.78602570072E+00  1.81655814219E+00  1.84761249314E+00  1.87919767488E+00
  1.91132276122E+00  1.94399698107E+00  1.97722972112E+00  2.01103052847E+00
  2.04540911346E+00  2.08037535237E+00  2.11593929034E+00  2.15211114420E+00
  2.18890130541E+00  2.22632034309E+00  2.26437900699E+00  2.30308823064E+00
  2.34245913444E+00  2.38250302890E+00  2.42323141784E+00  2.46465600176E+00
  2.50678868112E+00  2.54964155983E+00  2.59322694871E+00  2.63755736897E+00
  2.68264555590E+00  2.72850446247E+00  2.77514726304E+00  2.82258735718E+00
  2.87083837353E+00  2.91991417367E+00  2.96982885612E+00  3.02059676040E+00
  3.07223247115E+00  3.12475082232E+00  3.17816690140E+00  3.23249605381E+00
  3.28775388726E+00  3.34395627624E+00  3.40111936664E+00  3.45925958028E+00
  3.51839361974E+00  3.57853847307E+00  3.63971141873E+00  3.70193003052E+00
  3.76521218265E+00  3.82957605485E+00  3.89504013762E+00  3.96162323753E+00
  4.02934448260E+00  4.09822332784E+00  4.16827956082E+00  4.23953330732E+00
  4.31200503718E+00  4.38571557012E+00  4.46068608175E+00  4.53693810964E+00
  4.61449355953E+00  4.69337471160E+00  4.77360422688E+00  4.85520515375E+00
  4.93820093459E+00  5.02261541246E+00  5.10847283803E+00  5.19579787646E+00
  5.28461561456E+00  5.37495156793E+00  5.46683168835E+00  5.56028237119E+00
  5.65533046305E+00  5.75200326938E+00  5.85032856241E+00  5.95033458911E+00
  6.05205007926E+00  6.15550425377E+00  6.26072683300E+00  6.36774804537E+00
  6.47659863602E+00  6.58730987559E+00  6.69991356929E+00  6.81444206599E+00
  6.93092826750E+00  7.04940563806E+00  7.16990821392E+00  7.29247061313E+00
  7.41712804551E+00  7.54391632273E+00  7.67287186859E+00  7.80403172954E+00
  7.93743358527E+00  8.07311575954E+00  8.21111723122E+00  8.35147764546E+00
  8.49423732510E+00  8.63943728222E+00  8.78711922996E+00  8.93732559449E+00
  9.09009952720E+00  9.24548491707E+00  9.40352640333E+00  9.56426938822E+00
  9.72776005011E+00  9.89404535669E+00  1.00631730785E+01  1.02351918027E+01
  1.04101509469E+01  1.05881007735E+01  1.07690924041E+01  1.09531778340E+01
  1.11404099474E+01  1.13308425324E+01  1.15245302968E+01  1.17215288831E+01
  1.19218948854E+01  1.21256858648E+01  1.23329603666E+01  1.25437779367E+01
  1.27581991390E+01  1.29762855725E+01  1.31980998892E+01  1.34237058121E+01
  1.36531681534E+01  1.38865528331E+01  1.41239268983E+01  1.43653585418E+01
  1.46109171223E+01  1.48606731840E+01  1.51146984770E+01  1.53730659779E+01
  1.56358499107E+01  1.59031257680E+01  1.61749703331E+01  1.64514617017E+01
  1.67326793043E+01  1.70187039294E+01  1.73096177463E+01  1.76055043288E+01
  1.79064486796E+01  1.82125372540E+01  1.85238579854E+01  1.88405003102E+01
  1.91625551937E+01  1.94901151559E+01  1.98232742986E+01  2.01621283318E+01
  2.05067746018E+01  2.08573121188E+01  2.12138415855E+01  2.15764654258E+01
  2.19452878145E+01  2.23204147073E+01  2.27019538708E+01  2.30900149137E+01
  2.34847093187E+01  2.38861504736E+01  2.42944537049E+01  2.47097363100E+01
  2.51321175917E+01  2.55617188919E+01  2.59986636268E+01  2.64430773221E+01
  2.68950876494E+01  2.73548244623E+01  2.78224198344E+01  2.82980080969E+01
  2.87817258769E+01  2.92737121374E+01  2.97741082163E+01  3.02830578678E+01
  3.08007073033E+01  3.13272052335E+01  3.18627029110E+01  3.24073541740E+01
  3.29613154902E+01  3.35247460020E+01  3.40978075720E+01  3.46806648298E+01
  3.52734852190E+01  3.58764390454E+01  3.64896995259E+01  3.71134428385E+01
  3.77478481725E+01  3.83930977803E+01  3.90493770297E+01  3.97168744569E+01
  4.03957818210E+01  4.10862941591E+01  4.17886098419E+01  4.25029306311E+01
  4.32294617373E+01  4.39684118788E+01  4.47199933417E+01  4.54844220407E+01
  4.62619175816E+01  4.70527033236E+01  4.78570064442E+01  4.86750580042E+01
  4.95070930140E+01  5.03533505010E+01  5.12140735787E+01  5.20895095162E+01
  5.29799098093E+01  5.38855302527E+01  5.48066310137E+01  5.57434767067E+01
  5.66963364694E+01  5.76654840399E+01  5.86511978355E+01  5.96537610328E+01
  6.06734616488E+01  6.17105926237E+01  6.27654519052E+01  6.38383425339E+01
  6.49295727306E+01  6.60394559846E+01  6.71683111438E+01  6.83164625065E+01
  6.94842399144E+01  7.06719788473E+01  7.18800205196E+01  7.31087119784E+01
  7.43584062029E+01  7.56294622061E+01  7.69222451377E+01  7.82371263893E+01
  7.95744837009E+01  8.09347012692E+01  8.23181698586E+01  8.37252869127E+01
  8.51564566690E+01  8.66120902750E+01  8.80926059060E+01  8.95984288854E+01
  9.11299918071E+01  9.26877346595E+01  9.42721049520E+01  9.58835578435E+01
  9.75225562731E+01  9.91895710935E+01  1.00885081206E+02  1.02609573697E+02
  1.04363543981E+02  1.06147495939E+02  1.07961942066E+02  1.09807403617E+02
  1.11684410758E+02  1.13593502716E+02  1.15535227937E+02  1.17510144241E+02
  1.19518818983E+02  1.21561829216E+02  1.23639761858E+02  1.25753213858E+02
  1.27902792371E+02  1.30089114928E+02  1.32312809618E+02  1.34574515266E+02
  1.36874881615E+02  1.39214569517E+02  1.41594251118E+02
  </PP_R>
  <PP_RAB>
  2.80084991714E-06  2.84872653757E-06  2.89742154200E-06  2.94694891958E-06
  2.99732289856E-06  3.04855795041E-06  3.10066879396E-06  3.15367039966E-06
  3.20757799384E-06  3.26240706310E-06  3.31817335879E-06  3.37489290147E-06
  3.43258198557E-06  3.49125718406E-06  3.55093535317E-06  3.61163363730E-06
  3.67336947389E-06  3.73616059844E-06  3.80002504963E-06  3.86498117449E-06
  3.93104763365E-06  3.99824340672E-06  4.06658779776E-06  4.13610044077E-06
  4.20680130541E-06  4.27871070266E-06  4.35184929069E-06  4.42623808082E-06
  4.50189844349E-06  4.57885211447E-06  4.65712120106E-06  4.73672818845E-06
  4.81769594619E-06  4.90004773475E-06  4.98380721220E-06  5.06899844103E-06
  5.15564589501E-06  5.24377446630E-06  5.33340947252E-06  5.42457666407E-06
  5.51730223153E-06  5.61161281316E-06  5.70753550255E-06  5.80509785646E-06
  5.90432790264E-06  6.00525414797E-06  6.10790558662E-06  6.21231170835E-06
  6.31850250701E-06  6.42650848918E-06  6.53636068288E-06  6.64809064652E-06
  6.76173047796E-06  6.87731282372E-06  6.99487088837E-06  7.11443844407E-06
  7.23604984026E-06  7.35974001355E-06  7.48554449773E-06  7.61349943399E-06
  7.74364158132E-06  7.87600832702E-06  8.01063769750E-06  8.14756836919E-06
  8.28683967960E-06  8.42849163870E-06  8.57256494035E-06  8.71910097401E-06
  8.86814183667E-06  9.01973034487E-06  9.17391004705E-06  9.33072523608E-06
  9.49022096190E-06  9.65244304456E-06  9.81743808733E-06  9.98525349008E-06
  1.01559374629E-05  1.03295390401E-05  1.05061080939E-05  1.06856953493E-05
  1.08683523982E-05  1.10541317145E-05  1.12430866688E-05  1.14352715444E-05
  1.16307415523E-05  1.18295528471E-05  1.20317625435E-05  1.22374287325E-05
  1.24466104980E-05  1.26593679338E-05  1.28757621610E-05  1.30958553456E-05
  1.33197107160E-05  1.35473925815E-05  1.37789663507E-05  1.40144985504E-05
  1.42540568443E-05  1.44977100529E-05  1.47455281730E-05  1.49975823981E-05
  1.52539451383E-05  1.55146900419E-05  1.57798920156E-05  1.60496272470E-05
  1.63239732257E-05  1.66030087661E-05  1.68868140295E-05  1.71754705479E-05
  1.74690612466E-05  1.77676704685E-05  1.80713839984E-05  1.83802890872E-05
  1.86944744773E-05  1.90140304283E-05  1.93390487422E-05  1.96696227906E-05
  2.00058475410E-05  2.03478195843E-05  2.06956371624E-05  2.10494001966E-05
  2.14092103161E-05  2.17751708875E-05  2.21473870441E-05  2.25259657164E-05
  2.29110156628E-05  2.33026475006E-05  2.37009737382E-05  2.41061088068E-05
  2.45181690941E-05  2.49372729768E-05  2.53635408556E-05  2.57970951888E-05
  2.62380605283E-05  2.66865635548E-05  2.71427331146E-05  2.76067002565E-05
  2.80785982691E-05  2.85585627196E-05  2.90467314926E-05  2.95432448294E-05
  3.00482453688E-05  3.05618781877E-05  3.10842908427E-05  3.16156334130E-05
  3.21560585430E-05  3.27057214864E-05  3.32647801506E-05  3.38333951425E-05
  3.44117298142E-05  3.49999503099E-05  3.55982256140E-05  3.62067275995E-05
  3.68256310772E-05  3.74551138461E-05  3.80953567445E-05  3.87465437016E-05
  3.94088617910E-05  4.00825012838E-05  4.07676557035E-05  4.14645218819E-05
  4.21733000150E-05  4.28941937211E-05  4.36274100991E-05  4.43731597877E-05
  4.51316570265E-05  4.59031197170E-05  4.66877694856E-05  4.74858317468E-05
  4.82975357687E-05  4.91231147379E-05  4.99628058275E-05  5.08168502644E-05
  5.16854933989E-05  5.25689847756E-05  5.34675782044E-05  5.43815318337E-05
  5.53111082248E-05  5.62565744270E-05  5.72182020544E-05  5.81962673640E-05
  5.91910513351E-05  6.02028397498E-05  6.12319232754E-05  6.22785975477E-05
  6.33431632559E-05  6.44259262292E-05  6.55271975244E-05  6.66472935154E-05
  6.77865359842E-05  6.89452522131E-05  7.01237750787E-05  7.13224431480E-05
  7.25416007750E-05  7.37815982003E-05  7.50427916509E-05  7.63255434434E-05
  7.76302220876E-05  7.89572023924E-05  8.03068655736E-05  8.16795993632E-05
  8.30757981212E-05  8.44958629483E-05  8.59402018019E-05  8.74092296124E-05
  8.89033684031E-05  9.04230474112E-05  9.19687032110E-05  9.35407798397E-05
  9.51397289242E-05  9.67660098119E-05  9.84200897017E-05  1.00102443779E-04
  1.01813555351E-04  1.03553915987E-04  1.05324025660E-04  1.07124392887E-04
  1.08955534879E-04  1.10817977688E-04  1.12712256357E-04  1.14638915077E-04
  1.16598507339E-04  1.18591596095E-04  1.20618753922E-04  1.22680563183E-04
  1.24777616196E-04  1.26910515404E-04  1.29079873547E-04  1.31286313839E-04
  1.33530470149E-04  1.35812987180E-04  1.38134520653E-04  1.40495737501E-04
  1.42897316056E-04  1.45339946245E-04  1.47824329787E-04  1.50351180399E-04
  1.52921223996E-04  1.55535198901E-04  1.58193856060E-04  1.60897959251E-04
  1.63648285314E-04  1.66445624361E-04  1.69290780016E-04  1.72184569636E-04
  1.75127824551E-04  1.78121390300E-04  1.81166126879E-04  1.84262908980E-04
  1.87412626249E-04  1.90616183539E-04  1.93874501171E-04  1.97188515194E-04
  2.00559177662E-04  2.03987456901E-04  2.07474337790E-04  2.11020822040E-04
  2.14627928489E-04  2.18296693389E-04  2.22028170705E-04  2.25823432417E-04
  2.29683568832E-04  2.33609688892E-04  2.37602920495E-04  2.41664410819E-04
  2.45795326652E-04  2.49996854726E-04  2.54270202058E-04  2.58616596299E-04
  2.63037286084E-04  2.67533541391E-04  2.72106653908E-04  2.76757937401E-04
  2.81488728094E-04  2.86300385051E-04  2.91194290569E-04  2.96171850571E-04
  3.01234495015E-04  3.06383678301E-04  3.11620879688E-04  3.16947603724E-04
  3.22365380673E-04  3.27875766958E-04  3.33480345607E-04  3.39180726705E-04
  3.44978547863E-04  3.50875474682E-04  3.56873201235E-04  3.62973450553E-04
  3.69177975119E-04  3.75488557374E-04  3.81907010226E-04  3.88435177571E-04
  3.95074934826E-04  4.01828189465E-04  4.08696881567E-04  4.15682984375E-04
  4.22788504860E-04  4.30015484301E-04  4.37365998869E-04  4.44842160226E-04
  4.52446116128E-04  4.60180051043E-04  4.68046186782E-04  4.76046783133E-04
  4.84184138514E-04  4.92460590628E-04  5.00878517140E-04  5.09440336357E-04
  5.18148507925E-04  5.27005533533E-04  5.36013957633E-04  5.45176368170E-04
  5.54495397329E-04  5.63973722285E-04  5.73614065978E-04  5.83419197892E-04
  5.93391934852E-04  6.03535141833E-04  6.13851732781E-04  6.24344671453E-04
  6.35016972267E-04  6.45871701170E-04  6.56911976514E-04  6.68140969957E-04
  6.79561907372E-04  6.91178069773E-04  7.02992794258E-04  7.15009474970E-04
  7.27231564068E-04  7.39662572721E-04  7.52306072119E-04  7.65165694493E-04
  7.78245134165E-04  7.91548148604E-04  8.05078559509E-04  8.18840253905E-04
  8.32837185261E-04  8.47073374624E-04  8.61552911776E-04  8.76279956408E-04
  8.91258739315E-04  9.06493563611E-04  9.21988805966E-04  9.37748917864E-04
  9.53778426879E-04  9.70081937981E-04  9.86664134851E-04  1.00352978123E-03
  1.02068372230E-03  1.03813088606E-03  1.05587628473E-03  1.07392501622E-03
  1.09228226559E-03  1.11095330651E-03  1.12994350282E-03  1.14925831004E-03
  1.16890327693E-03  1.18888404711E-03  1.20920636068E-03  1.22987605583E-03
  1.25089907057E-03  1.27228144441E-03  1.29402932009E-03  1.31614894535E-03
  1.33864667474E-03  1.36152897141E-03  1.38480240900E-03  1.40847367354E-03
  1.43254956530E-03  1.45703700083E-03  1.48194301490E-03  1.50727476252E-03
  1.53303952102E-03  1.55924469210E-03  1.58589780400E-03  1.61300651366E-03
  1.64057860888E-03  1.66862201059E-03  1.69714477511E-03  1.72615509648E-03
  1.75566130881E-03  1.78567188866E-03  1.81619545748E-03  1.84724078412E-03
  1.87881678729E-03  1.91093253817E-03  1.94359726299E-03  1.97682034569E-03
  2.01061133062E-03  2.04497992528E-03  2.07993600310E-03  2.11548960629E-03
  2.15165094870E-03  2.18843041879E-03  2.22583858260E-03  2.26388618676E-03
  2.30258416161E-03  2.34194362434E-03  2.38197588215E-03  2.42269243553E-03
  2.46410498158E-03  2.50622541730E-03  2.54906584309E-03  2.59263856616E-03
  2.63695610413E-03  2.68203118856E-03  2.72787676865E-03  2.77450601495E-03
  2.82193232313E-03  2.87016931787E-03  2.91923085671E-03  2.96913103409E-03
  3.01988418536E-03  3.07150489091E-03  3.12400798039E-03  3.17740853691E-03
  3.23172190141E-03  3.28696367708E-03  3.34314973381E-03  3.40029621276E-03
  3.45841953102E-03  3.51753638629E-03  3.57766376169E-03  3.63881893066E-03
  3.70101946189E-03  3.76428322440E-03  3.82862839264E-03  3.89407345172E-03
  3.96063720276E-03  4.02833876822E-03  4.09719759746E-03  4.16723347229E-03
  4.23846651265E-03  4.31091718242E-03  4.38460629528E-03  4.45955502068E-03
  4.53578488994E-03  4.61331780243E-03  4.69217603186E-03  4.77238223266E-03
  4.85395944652E-03  4.93693110901E-03  5.02132105627E-03  5.10715353190E-03
  5.19445319392E-03  5.28324512182E-03  5.37355482381E-03  5.46540824412E-03
  5.55883177045E-03  5.65385224159E-03  5.75049695506E-03  5.84879367504E-03
  5.94877064026E-03  6.05045657217E-03  6.15388068317E-03  6.25907268501E-03
  6.36606279731E-03  6.47488175627E-03  6.58556082346E-03  6.69813179484E-03
  6.81262700987E-03  6.92907936081E-03  7.04752230216E-03  7.16798986030E-03
  7.29051664322E-03  7.41513785049E-03  7.54188928338E-03  7.67080735511E-03
  7.80192910137E-03  7.93529219088E-03  8.07093493628E-03  8.20889630511E-03
  8.34921593100E-03  8.49193412506E-03  8.63709188747E-03  8.78473091924E-03
  8.93489363421E-03  9.08762317123E-03  9.24296340653E-03  9.40095896636E-03
  9.56165523979E-03  9.72509839174E-03  9.89133537626E-03  1.00604139500E-02
  1.02323826861E-02  1.04072909876E-02  1.05851891025E-02  1.07661281374E-02
  1.09501600725E-02  1.11373377768E-02  1.13277150227E-02  1.15213465019E-02
  1.17182878410E-02  1.19185956174E-02  1.21223273757E-02  1.23295416441E-02
  1.25402979513E-02  1.27546568433E-02  1.29726799015E-02  1.31944297596E-02
  1.34199701220E-02  1.36493657821E-02  1.38826826409E-02  1.41199877258E-02
  1.43613492099E-02  1.46068364318E-02  1.48565199151E-02  1.51104713891E-02
  1.53687638091E-02  1.56314713776E-02  1.58986695653E-02  1.61704351331E-02
  1.64468461540E-02  1.67279820356E-02  1.70139235427E-02  1.73047528208E-02
  1.76005534195E-02  1.79014103166E-02  1.82074099425E-02  1.85186402050E-02
  1.88351905144E-02  1.91571518096E-02  1.94846165838E-02  1.98176789113E-02
  2.01564344745E-02  2.05009805913E-02  2.08514162430E-02  2.12078421032E-02
  2.15703605660E-02  2.19390757760E-02  2.23140936579E-02  2.26955219471E-02
  2.30834702206E-02  2.34780499284E-02  2.38793744257E-02  2.42875590051E-02
  2.47027209302E-02  2.51249794691E-02  2.55544559284E-02  2.59912736883E-02
  2.64355582382E-02  2.68874372125E-02  2.73470404272E-02  2.78144999174E-02
  2.82899499752E-02  2.87735271882E-02  2.92653704787E-02  2.97656211439E-02
  3.02744228960E-02  3.07919219041E-02  3.13182668354E-02  3.18536088987E-02
  3.23981018875E-02  3.29519022241E-02  3.35151690045E-02  3.40880640444E-02
  3.46707519254E-02  3.52634000426E-02  3.58661786523E-02  3.64792609210E-02
  3.71028229755E-02  3.77370439531E-02  3.83821060531E-02  3.90381945895E-02
  3.97054980438E-02  4.03842081193E-02  4.10745197964E-02  4.17766313881E-02
  4.24907445977E-02  4.32170645759E-02  4.39557999805E-02  4.47071630359E-02
  4.54713695941E-02  4.62486391968E-02  4.70391951386E-02  4.78432645310E-02
  4.86610783675E-02  4.94928715901E-02  5.03388831570E-02  5.11993561109E-02
  5.20745376491E-02  5.29646791943E-02  5.38700364669E-02  5.47908695586E-02
  5.57274430068E-02  5.66800258710E-02  5.76488918099E-02  5.86343191598E-02
  5.96365910150E-02  6.06559953087E-02  6.16928248962E-02  6.27473776385E-02
  6.38199564881E-02  6.49108695763E-02  6.60204303012E-02  6.71489574182E-02
  6.82967751312E-02  6.94642131862E-02  7.06516069654E-02  7.18592975842E-02
  7.30876319886E-02  7.43369630553E-02  7.56076496931E-02  7.69000569455E-02
  7.82145560962E-02  7.95515247754E-02  8.09113470682E-02  8.22944136254E-02
  8.37011217751E-02  8.51318756375E-02  8.65870862403E-02  8.80671716374E-02
  8.95725570288E-02  9.11036748826E-02  9.26609650592E-02  9.42448749380E-02
  9.58558595456E-02  9.74943816868E-02  9.91609120772E-02  1.00855929479E-01
  1.02579920837E-01  1.04333381422E-01  1.06116814969E-01  1.07930733822E-01
  1.09775659087E-01  1.11652120775E-01  1.13560657957E-01  1.15501818918E-01
  1.17476161316E-01  1.19484252342E-01  1.21526668882E-01  1.23603997683E-01
  1.25716835520E-01  1.27865789371E-01  1.30051476589E-01  1.32274525079E-01
  1.34535573482E-01  1.36835271351E-01  1.39174279345E-01  1.41553269417E-01
  1.43972925004E-01  1.46433941226E-01  1.48937025087E-01  1.51482895672E-01
  1.54072284362E-01  1.56705935038E-01  1.59384604296E-01  1.62109061667E-01
  1.64880089835E-01  1.67698484862E-01  1.70565056418E-01  1.73480628015E-01
  1.76446037239E-01  1.79462135995E-01  1.82529790750E-01  1.85649882782E-01
  1.88823308432E-01  1.92050979366E-01  1.95333822829E-01  1.98672781920E-01
  2.02068815856E-01  2.05522900253E-01  2.09036027402E-01  2.12609206557E-01
  2.16243464223E-01  2.19939844452E-01  2.23699409142E-01  2.27523238343E-01
  2.31412430568E-01  2.35368103106E-01  2.39391392346E-01  2.43483454100E-01
  2.47645463939E-01  2.51878617528E-01  2.56184130969E-01  2.60563241154E-01
  2.65017206116E-01  2.69547305393E-01  2.74154840395E-01  2.78841134777E-01