<PP_INFO>
Generated using BHS code
Author: BHS    Generation date: 1982
Info: See Bachelet-Hamann-Schlueter paper: PRB26, 4199 (1982)
    1        The Pseudo was generated with a Scalar-Relativistic Calculation
  0.00000000000E+00    Local Potential cutoff radius
nl pn  l   occ               Rcut            Rcut US             E pseu
6S  0  0  2.00      0.00000000000      0.00000000000      0.00000000000
6P  0  1  2.00      0.00000000000      0.00000000000      0.00000000000
6D  0  2  0.00      0.00000000000      0.00000000000      0.00000000000
</PP_INFO>


<PP_HEADER>
   0                   Version Number
  Pb                   Element
   NC                  Norm - Conserving pseudopotential
    F                  Nonlinear Core Correction
 SLA  PZ   NOGX NOGC   PZ   Exchange-Correlation functional
    4.00000000000      Z valence
    0.00000000000      Total energy
  0.0000000  0.0000000 Suggested cutoff for wfc and rho
    2                  Max angular momentum component
  331                  Number of points in mesh
    3    3             Number of Wavefunctions, Number of Projectors
 Wavefunctions         nl  l   occ
                       6S  0  2.00
                       6P  1  2.00
                       6D  2  0.00
</PP_HEADER>


<PP_MESH>
  <PP_R>
  8.21700853547E-05  8.57375864127E-05  8.94599742977E-05  9.33439735850E-05
  9.73966008043E-05  1.01625177115E-04  1.06037341534E-04  1.10641064732E-04
  1.15444663435E-04  1.20456815451E-04  1.25686575341E-04  1.31143390782E-04
  1.36837119629E-04  1.42778047729E-04  1.48976907498E-04  1.55444897312E-04
  1.62193701737E-04  1.69235512635E-04  1.76583051192E-04  1.84249590897E-04
  1.92248981523E-04  2.00595674142E-04  2.09304747239E-04  2.18391933944E-04
  2.27873650460E-04  2.37767025715E-04  2.48089932307E-04  2.58861018794E-04
  2.70099743379E-04  2.81826409064E-04  2.94062200327E-04  3.06829221394E-04
  3.20150536167E-04  3.34050209893E-04  3.48553352638E-04  3.63686164645E-04
  3.79475983671E-04  3.95951334371E-04  4.13141979825E-04  4.31078975312E-04
  4.49794724405E-04  4.69323037517E-04  4.89699192971E-04  5.10960000739E-04
  5.33143868936E-04  5.56290873205E-04  5.80442829116E-04  6.05643367707E-04
  6.31938014302E-04  6.59374270755E-04  6.88001701266E-04  7.17872021913E-04
  7.49039194085E-04  7.81559521962E-04  8.15491754227E-04  8.50897190201E-04
  8.87839790578E-04  9.26386292977E-04  9.66606332497E-04  1.00857256752E-03
  1.05236081097E-03  1.09805016726E-03  1.14572317523E-03  1.19546595719E-03
  1.24736837458E-03  1.30152419025E-03  1.35803123786E-03  1.41699159865E-03
  1.47851178577E-03  1.54270293681E-03  1.60968101449E-03  1.67956701615E-03
  1.75248719241E-03  1.82857327515E-03  1.90796271555E-03  1.99079893237E-03
  2.07723157104E-03  2.16741677403E-03  2.26151746288E-03  2.35970363254E-03
  2.46215265847E-03  2.56904961709E-03  2.68058762009E-03  2.79696816332E-03
  2.91840149078E-03  3.04510697442E-03  3.17731351049E-03  3.31525993298E-03
  3.45919544512E-03  3.60938006957E-03  3.76608511815E-03  3.92959368194E-03
  4.10020114277E-03  4.27821570672E-03  4.46395896102E-03  4.65776645493E-03
  4.85998830591E-03  5.07098983217E-03  5.29115221260E-03  5.52087317534E-03
  5.76056771635E-03  6.01066884907E-03  6.27162838667E-03  6.54391775826E-03
  6.82802886055E-03  7.12447494648E-03  7.43379155239E-03  7.75653746550E-03
  8.09329573337E-03  8.44467471718E-03  8.81130919076E-03  9.19386148731E-03
  9.59302269593E-03  1.00095139101E-02  1.04440875303E-02  1.08975286233E-02
  1.13706563403E-02  1.18643253970E-02  1.23794276173E-02  1.29168935446E-02
  1.34776941229E-02  1.40628424507E-02  1.46733956113E-02  1.53104565824E-02
  1.59751762285E-02  1.66687553802E-02  1.73924470034E-02  1.81475584630E-02
  1.89354538843E-02  1.97575566176E-02  2.06153518095E-02  2.15103890858E-02
  2.24442853510E-02  2.34187277091E-02  2.44354765115E-02  2.54963685372E-02
  2.66033203110E-02  2.77583315653E-02  2.89634888534E-02  3.02209693182E-02
  3.15330446258E-02  3.29020850689E-02  3.43305638491E-02  3.58210615445E-02
  3.73762707719E-02  3.89990010507E-02  4.06921838789E-02  4.24588780281E-02
  4.43022750702E-02  4.62257051421E-02  4.82326429624E-02  5.03267141084E-02
  5.25117015652E-02  5.47915525606E-02  5.71703856954E-02  5.96524983836E-02
  6.22423746163E-02  6.49446930615E-02  6.77643355166E-02  7.07063957275E-02
  7.37761885904E-02  7.69792597533E-02  8.03213956343E-02  8.38086338752E-02
  8.74472742481E-02  9.12438900366E-02  9.52053399102E-02  9.93387803148E-02
  1.03651678401E-01  1.08151825514E-01  1.12847351267E-01  1.17746738231E-01
  1.22858837256E-01  1.28192883461E-01  1.33758512916E-01  1.39565780053E-01
  1.45625175827E-01  1.51947646671E-01  1.58544614264E-01  1.65427996175E-01
  1.72610227383E-01  1.80104282745E-01  1.87923700438E-01  1.96082606410E-01
  2.04595739904E-01  2.13478480082E-01  2.22746873807E-01  2.32417664638E-01
  2.42508323068E-01  2.53037078093E-01  2.64022950140E-01  2.75485785428E-01
  2.87446291818E-01  2.99926076228E-01  3.12947683661E-01  3.26534637937E-01
  3.40711484186E-01  3.55503833190E-01  3.70938407653E-01  3.87043090471E-01
  4.03846975106E-01  4.21380418144E-01  4.39675094132E-01  4.58764052805E-01
  4.78681778784E-01  4.99464253877E-01  5.21149022080E-01  5.43775257402E-01
  5.67383834632E-01  5.92017403181E-01  6.17720464132E-01  6.44539450626E-01
  6.72522811750E-01  7.01721100057E-01  7.32187062896E-01  7.63975737694E-01
  7.97144551390E-01  8.31753424172E-01  8.67864877724E-01  9.05544148180E-01
  9.44859303967E-01  9.85881368773E-01  1.02868444986E+00  1.07334587192E+00
  1.11994631681E+00  1.16856996923E+00  1.21930466889E+00  1.27224206913E+00
  1.32747780253E+00  1.38511165364E+00  1.44524773928E+00  1.50799469660E+00
  1.57346587936E+00  1.64177956268E+00  1.71305915672E+00  1.78743342964E+00
  1.86503674019E+00  1.94600928044E+00  2.03049732906E+00  2.11865351557E+00
  2.21063709604E+00  2.30661424082E+00  2.40675833473E+00  2.51125029027E+00
  2.62027887444E+00  2.73404104977E+00  2.85274233012E+00  2.97659715194E+00
  3.10582926169E+00  3.24067212000E+00  3.38136932345E+00  3.52817504462E+00
  3.68135449125E+00  3.84118438538E+00  4.00795346319E+00  4.18196299670E+00
  4.36352733791E+00  4.55297448680E+00  4.75064668379E+00  4.95690102803E+00
  5.17211012250E+00  5.39666274715E+00  5.63096456121E+00  5.87543883603E+00
  6.13052721976E+00  6.39669053513E+00  6.67440961201E+00  6.96418615599E+00
  7.26654365473E+00  7.58202832369E+00  7.91121009282E+00  8.25468363619E+00
  8.61306944628E+00  8.98701495492E+00  9.37719570283E+00  9.78431656009E+00
  1.02091129994E+01  1.06523524249E+01  1.11148355583E+01  1.15973978855E+01
  1.21009111659E+01  1.26262850073E+01  1.31744685089E+01  1.37464519764E+01
  1.43432687104E+01  1.49659968733E+01  1.56157614372E+01  1.62937362161E+01
  1.70011459862E+01  1.77392686987E+01  1.85094377886E+01  1.93130445831E+01
  2.01515408154E+01  2.10264412475E+01  2.19393264060E+01  2.28918454381E+01
  2.38857190901E+01  2.49227428166E+01  2.60047900238E+01  2.71338154534E+01
  2.83118587148E+01  2.95410479688E+01  3.08236037727E+01  3.21618430918E+01
  3.35581834845E+01  3.50151474705E+01  3.65353670870E+01  3.81215886441E+01
  3.97766776857E+01  4.15036241665E+01  4.33055478530E+01  4.51857039599E+01
  4.71474890303E+01  4.91944470719E+01  5.13302759592E+01  5.35588341139E+01
  5.58841474751E+01  5.83104167723E+01  6.08420251141E+01  6.34835459063E+01
  6.62397511142E+01  6.91156198827E+01  7.21163475319E+01  7.52473549418E+01
  7.85142983459E+01  8.19230795490E+01  8.54798565890E+01  8.91910548615E+01
  9.30633787274E+01  9.71038236246E+01  1.01319688705E+02
  </PP_R>
  <PP_RAB>
  3.49222862757E-06  3.64384742254E-06  3.80204890765E-06  3.96711887736E-06
  4.13935553418E-06  4.31907002741E-06  4.50658701520E-06  4.70224525110E-06
  4.90639819601E-06  5.11941465668E-06  5.34167945201E-06  5.57359410823E-06
  5.81557758424E-06  6.06806702848E-06  6.33151856867E-06  6.60640813578E-06
  6.89323232383E-06  7.19250928700E-06  7.50477967567E-06  7.83060761314E-06
  8.17058171471E-06  8.52531615104E-06  8.89545175766E-06  9.28165719264E-06
  9.68463014456E-06  1.01050985929E-05  1.05438221230E-05  1.10015932987E-05
  1.14792390936E-05  1.19776223852E-05  1.24976435139E-05  1.30402419092E-05
  1.36063977871E-05  1.41971339205E-05  1.48135174871E-05  1.54566619974E-05
  1.61277293060E-05  1.68279317108E-05  1.75585341426E-05  1.83208564507E-05
  1.91162757872E-05  1.99462290945E-05  2.08122157013E-05  2.17158000314E-05
  2.26586144298E-05  2.36423621112E-05  2.46688202374E-05  2.57398431275E-05
  2.68573656078E-05  2.80234065071E-05  2.92400723038E-05  3.05095609313E-05
  3.18341657486E-05  3.32162796834E-05  3.46583995546E-05  3.61631305835E-05
  3.77331910996E-05  3.93714174515E-05  4.10807691311E-05  4.28643341196E-05
  4.47253344661E-05  4.66671321087E-05  4.86932349471E-05  5.08073031806E-05
  5.30131559196E-05  5.53147780856E-05  5.77163276093E-05  6.02221429424E-05
  6.28367508954E-05  6.55648748146E-05  6.84114431156E-05  7.13815981866E-05
  7.44807056775E-05  7.77143641939E-05  8.10884154108E-05  8.46089546255E-05
  8.82823417693E-05  9.21152128963E-05  9.61144921723E-05  1.00287404383E-04
  1.04641487985E-04  1.09184608726E-04  1.13924973854E-04  1.18871146941E-04
  1.24032063358E-04  1.29417046413E-04  1.35035824196E-04  1.40898547151E-04
  1.47015806418E-04  1.53398652957E-04  1.60058617521E-04  1.67007731483E-04
  1.74258548568E-04  1.81824167536E-04  1.89718255844E-04  1.97955074334E-04
  2.06549503001E-04  2.15517067867E-04  2.24873969035E-04  2.34637109952E-04
  2.44824127945E-04  2.55453426086E-04  2.66544206433E-04  2.78116504726E-04
  2.90191226574E-04  3.02790185226E-04  3.15936140977E-04  3.29652842284E-04
  3.43965068668E-04  3.58898675480E-04  3.74480640607E-04  3.90739113211E-04
  4.07703464577E-04  4.25404341179E-04  4.43873720037E-04  4.63144966489E-04
  4.83252894463E-04  5.04233829372E-04  5.26125673734E-04  5.48967975644E-04
  5.72802000222E-04  5.97670804155E-04  6.23619313481E-04  6.50694404751E-04
  6.78944989709E-04  7.08422103657E-04  7.39178997646E-04  7.71271234678E-04
  8.04756790082E-04  8.39696156247E-04  8.76152451904E-04  9.14191536148E-04
  9.53882127417E-04  9.95295927635E-04  1.03850775174E-03  1.08359566283E-03
  1.13064111322E-03  1.17972909153E-03  1.23094827627E-03  1.28439119602E-03
  1.34015439660E-03  1.39833861543E-03  1.45904896359E-03  1.52239511564E-03
  1.58849150780E-03  1.65745754466E-03  1.72941781485E-03  1.80450231620E-03
  1.88284669048E-03  1.96459246854E-03  2.04988732590E-03  2.13888534961E-03
  2.23174731652E-03  2.32864098383E-03  2.42974139205E-03  2.53523118130E-03
  2.64530092119E-03  2.76014945511E-03  2.87998425946E-03  3.00502181842E-03
  3.13548801509E-03  3.27161853951E-03  3.41365931446E-03  3.56186693970E-03
  3.71650915555E-03  3.87786532656E-03  4.04622694618E-03  4.22189816338E-03
  4.40519633204E-03  4.59645258433E-03  4.79601242885E-03  5.00423637483E-03
  5.22150058339E-03  5.44819754707E-03  5.68473679891E-03  5.93154565224E-03
  6.18906997267E-03  6.45777498350E-03  6.73814610623E-03  7.03068983743E-03
  7.33593466376E-03  7.65443201668E-03  7.98675726862E-03  8.33351077244E-03
  8.69531894593E-03  9.07283540347E-03  9.46674213682E-03  9.87775074710E-03
  1.03066037304E-02  1.07540758190E-02  1.12209753810E-02  1.17081458807E-02
  1.22164674023E-02  1.27468582397E-02  1.33002765556E-02  1.38777221123E-02
  1.44802380779E-02  1.51089129106E-02  1.57648823253E-02  1.64493313450E-02
  1.71634964420E-02  1.79086677711E-02  1.86861915006E-02  1.94974722442E-02
  2.03439755983E-02  2.12272307898E-02  2.21488334384E-02  2.31104484396E-02
  2.41138129718E-02  2.51607396352E-02  2.62531197256E-02  2.73929266516E-02
  2.85822194994E-02  2.98231467524E-02  3.11179501731E-02  3.24689688520E-02
  3.38786434341E-02  3.53495205273E-02  3.68842573033E-02  3.84856262977E-02
  4.01565204186E-02  4.18999581728E-02  4.37190891189E-02  4.56171995567E-02
  4.75977184643E-02  4.96642236924E-02  5.18204484280E-02  5.40702879382E-02
  5.64178066075E-02  5.88672452797E-02  6.14230289193E-02  6.40897746055E-02
  6.68722998727E-02  6.97756314138E-02  7.28050141608E-02  7.59659207599E-02
  7.92640614581E-02  8.27053944188E-02  8.62961364853E-02  9.00427744117E-02
  9.39520765816E-02  9.80311052349E-02  1.02287229226E-01  1.06728137337E-01
  1.11361852164E-01  1.16196744615E-01  1.21241549030E-01  1.26505378957E-01
  1.31997743622E-01  1.37728565100E-01  1.43708196247E-01  1.49947439396E-01
  1.56457565878E-01  1.63250336379E-01  1.70338022186E-01  1.77733427360E-01
  1.85449911861E-01  1.93501415689E-01  2.01902484061E-01  2.10668293691E-01
  2.19814680206E-01  2.29358166754E-01  2.39315993851E-01  2.49706150531E-01
  2.60547406840E-01  2.71859347743E-01  2.83662408510E-01  2.95977911629E-01
  3.08828105326E-01  3.22236203757E-01  3.36226428945E-01  3.50824054538E-01
  3.66055451467E-01  3.81948135584E-01  3.98530817370E-01  4.15833453804E-01
  4.33887302476E-01  4.52724978060E-01  4.72380511230E-01  4.92889410135E-01
  5.14288724551E-01  5.36617112809E-01  5.59914911630E-01  5.84224208997E-01
  6.09588920190E-01  6.36054867114E-01  6.63669861081E-01  6.92483789183E-01
  7.22548704412E-01  7.53918919696E-01  7.86651106015E-01  8.20804394780E-01
  8.56440484655E-01  8.93623753018E-01  9.32421372256E-01  9.72903431118E-01
  1.01514306133E+00  1.05921656971E+00  1.10520357601E+00  1.15318715677E+00
  1.20325399538E+00  1.25549453867E+00  1.31000316034E+00  1.36687833140E+00
  1.42622279809E+00  1.48814376750E+00  1.55275310120E+00  1.62016751737E+00
  1.69050880164E+00  1.76390402707E+00  1.84048578375E+00  1.92039241829E+00
  2.00376828379E+00  2.09076400055E+00  2.18153672827E+00  2.27625044984E+00
  2.37507626769E+00  2.47819271282E+00  2.58578606735E+00  2.69805070102E+00
  2.81518942235E+00  2.93741384502E+00  3.06494477010E+00  3.19801258503E+00
  3.33685767970E+00  3.48173088083E+00  3.63289390503E+00  3.79061983161E+00
  3.95519359591E+00  4.12691250404E+00  4.30608676997E+00
  </PP_RAB>
</PP_MESH>


<PP_LOCAL>
 -7.65022681944E+00 -7.65022682254E+00 -7.65022682592E+00 -7.65022682957E+00
 -7.65022683358E+00 -7.65022683792E+00 -7.65022684266E+00 -7.65022684780E+00
 -7.65022685342E+00 -7.65022685953E+00 -7.65022686616E+00 -7.65022687341E+00
 -7.65022688130E+00 -7.65022688988E+00 -7.65022689922E+00 -7.65022690941E+00
 -7.65022692049E+00 -7.65022693253E+00 -7.65022694568E+00 -7.65022695996E+00
 -7.65022697552E+00 -7.65022699248E+00 -7.65022701091E+00 -7.65022703099E+00
 -7.65022705287E+00 -7.65022707668E+00 -7.65022710259E+00 -7.65022713081E+00
 -7.65022716150E+00 -7.65022719495E+00 -7.65022723136E+00 -7.65022727100E+00
 -7.65022731416E+00 -7.65022736115E+00 -7.65022741229E+00 -7.65022746800E+00
 -7.65022752863E+00 -7.65022759465E+00 -7.65022766652E+00 -7.65022774476E+00
 -7.65022782994E+00 -7.65022792268E+00 -7.65022802366E+00 -7.65022813360E+00
 -7.65022825328E+00 -7.65022838357E+00 -7.65022852543E+00 -7.65022867987E+00
 -7.65022884804E+00 -7.65022903109E+00 -7.65022923041E+00 -7.65022944738E+00
 -7.65022968362E+00 -7.65022994082E+00 -7.65023022084E+00 -7.65023052569E+00
 -7.65023085759E+00 -7.65023121894E+00 -7.65023161235E+00 -7.65023204066E+00
 -7.65023250697E+00 -7.65023301464E+00 -7.65023356735E+00 -7.65023416911E+00
 -7.65023482426E+00 -7.65023553752E+00 -7.65023631404E+00 -7.65023715949E+00
 -7.65023807991E+00 -7.65023908200E+00 -7.65024017300E+00 -7.65024136078E+00
 -7.65024265392E+00 -7.65024406180E+00 -7.65024559458E+00 -7.65024726335E+00
 -7.65024908018E+00 -7.65025105818E+00 -7.65025321165E+00 -7.65025555618E+00
 -7.65025810870E+00 -7.65026088767E+00 -7.65026391319E+00 -7.65026720712E+00
 -7.65027079328E+00 -7.65027469757E+00 -7.65027894826E+00 -7.65028357603E+00
 -7.65028861437E+00 -7.65029409970E+00 -7.65030007164E+00 -7.65030657340E+00
 -7.65031365194E+00 -7.65032135849E+00 -7.65032974871E+00 -7.65033888328E+00
 -7.65034882820E+00 -7.65035965538E+00 -7.65037144309E+00 -7.65038427653E+00
 -7.65039824848E+00 -7.65041345991E+00 -7.65043002081E+00 -7.65044805087E+00
 -7.65046768041E+00 -7.65048905133E+00 -7.65051231809E+00 -7.65053764888E+00
 -7.65056522673E+00 -7.65059525102E+00 -7.65062793874E+00 -7.65066352613E+00
 -7.65070227040E+00 -7.65074445154E+00 -7.65079037440E+00 -7.65084037082E+00
 -7.65089480211E+00 -7.65095406159E+00 -7.65101857745E+00 -7.65108881587E+00
 -7.65116528432E+00 -7.65124853525E+00 -7.65133917008E+00 -7.65143784357E+00
 -7.65154526850E+00 -7.65166222073E+00 -7.65178954495E+00 -7.65192816069E+00
 -7.65207906883E+00 -7.65224335897E+00 -7.65242221720E+00 -7.65261693464E+00
 -7.65282891662E+00 -7.65305969297E+00 -7.65331092878E+00 -7.65358443653E+00
 -7.65388218895E+00 -7.65420633322E+00 -7.65455920631E+00 -7.65494335169E+00
 -7.65536153754E+00 -7.65581677640E+00 -7.65631234671E+00 -7.65685181618E+00
 -7.65743906702E+00 -7.65807832363E+00 -7.65877418240E+00 -7.65953164427E+00
 -7.66035614997E+00 -7.66125361834E+00 -7.66223048794E+00 -7.66329376191E+00
 -7.66445105723E+00 -7.66571065734E+00 -7.66708156971E+00 -7.66857358811E+00
 -7.67019735974E+00 -7.67196445812E+00 -7.67388746188E+00 -7.67598003954E+00
 -7.67825704154E+00 -7.68073459904E+00 -7.68343023044E+00 -7.68636295625E+00
 -7.68955342206E+00 -7.69302403071E+00 -7.69679908399E+00 -7.70090493349E+00
 -7.70537014215E+00 -7.71022565537E+00 -7.71550498270E+00 -7.72124438973E+00
 -7.72748309951E+00 -7.73426350349E+00 -7.74163138053E+00 -7.74963612283E+00
 -7.75833096655E+00 -7.76777322476E+00 -7.77802451854E+00 -7.78915100214E+00
 -7.80122357563E+00 -7.81431807752E+00 -7.82851544756E+00 -7.84390184764E+00
 -7.86056872540E+00 -7.87861280247E+00 -7.89813596410E+00 -7.91924502334E+00
 -7.94205132621E+00 -7.96667015909E+00 -7.99321991138E+00 -8.02182093986E+00
 -8.05259407156E+00 -8.08565867485E+00 -8.12113021920E+00 -8.15911723691E+00
 -8.19971759599E+00 -8.24301399055E+00 -8.28906856009E+00 -8.33791656061E+00
 -8.38955903399E+00 -8.44395446020E+00 -8.50100943320E+00 -8.56056848244E+00
 -8.62240326638E+00 -8.68620150107E+00 -8.75155614671E+00 -8.81795555978E+00
 -8.88477550756E+00 -8.95127411445E+00 -9.01659092612E+00 -9.07975128110E+00
 -9.13967699851E+00 -9.19520393671E+00 -9.24510615839E+00 -9.28812517609E+00
 -9.32300101675E+00 -9.34849970095E+00 -9.36342940542E+00 -9.36663551383E+00
 -9.35696369534E+00 -9.33318110813E+00 -9.29385004523E+00 -9.23715704083E+00
 -9.16071439157E+00 -9.06136985116E+00 -8.93508163030E+00 -8.77693481415E+00
 -8.58138402399E+00 -8.34279562889E+00 -8.05632145527E+00 -7.71905987054E+00
 -7.33135486872E+00 -6.89797042323E+00 -6.42879371418E+00 -5.93871493682E+00
 -5.44644488436E+00 -4.97227506801E+00 -4.53511544402E+00 -4.14945821316E+00
 -3.82307407189E+00 -3.55613557428E+00 -3.34206352878E+00 -3.16982873843E+00
 -3.02694511393E+00 -2.90219486896E+00 -2.78733082790E+00 -2.67749534164E+00
 -2.57061769188E+00 -2.46634748419E+00 -2.36505685551E+00 -2.26720042140E+00
 -2.17305192933E+00 -2.08268283052E+00 -1.99603244659E+00 -1.91297856610E+00
 -1.83337969332E+00 -1.75709325556E+00 -1.68398130386E+00 -1.61391159468E+00
 -1.54675747780E+00 -1.48239761795E+00 -1.42071574296E+00 -1.36160042225E+00
 -1.30494486253E+00 -1.25064671428E+00 -1.19860788670E+00 -1.14873437051E+00
 -1.10093606811E+00 -1.05512663083E+00 -1.01122330290E+00 -9.69146772013E-01
 -9.28821025988E-01 -8.90173215482E-01 -8.53133522380E-01 -8.17635033665E-01
 -7.83613620541E-01 -7.51007822578E-01 -7.19758736691E-01 -6.89809910720E-01
 -6.61107241456E-01 -6.33598876898E-01 -6.07235122584E-01 -5.81968351814E-01
 -5.57752919613E-01 -5.34545080274E-01 -5.12302908326E-01 -4.90986222798E-01
 -4.70556514632E-01 -4.50976877112E-01 -4.32211939194E-01 -4.14227801608E-01
 -3.96991975615E-01 -3.80473324318E-01 -3.64642006411E-01 -3.49469422273E-01
 -3.34928162297E-01 -3.20991957380E-01 -3.07635631462E-01 -2.94835056048E-01
 -2.82567106618E-01 -2.70809620852E-01 -2.59541358596E-01 -2.48741963487E-01
 -2.38391926181E-01 -2.28472549109E-01 -2.18965912699E-01 -2.09854843005E-01
 -2.01122880679E-01 -1.92754251241E-01 -1.84733836578E-01 -1.77047147636E-01
 -1.69680298242E-01 -1.62619980022E-01 -1.55853438356E-01 -1.49368449339E-01
 -1.43153297696E-01 -1.37196755620E-01 -1.31488062486E-01 -1.26016905417E-01
 -1.20773400646E-01 -1.15748075668E-01 -1.10931852122E-01 -1.06316029397E-01
 -1.01892268906E-01 -9.76525790295E-02 -9.35893006754E-02 -8.96950934421E-02
 -8.59629223589E-02 -8.23860451771E-02 -7.89580001897E-02
</PP_LOCAL>


<PP_NONLOCAL>
  <PP_BETA>
    1    0             Beta    L
   277
  1.19586701049E-04  1.24778684338E-04  1.30196083249E-04  1.35848684792E-04
  1.41746699034E-04  1.47900780366E-04  1.54322048779E-04  1.61022104039E-04
  1.68013049327E-04  1.75307514870E-04  1.82918674486E-04  1.90860283397E-04
  1.99146685322E-04  2.07792850290E-04  2.16814395914E-04  2.26227622835E-04
  2.36049533639E-04  2.46297875390E-04  2.56991149090E-04  2.68148697122E-04
  2.79790655981E-04  2.91938083901E-04  3.04612866317E-04  3.17837975841E-04
  3.31637235919E-04  3.46035628074E-04  3.61059126471E-04  3.76734886984E-04
  3.93091247199E-04  4.10157726412E-04  4.27965143798E-04  4.46545712950E-04
  4.65932970970E-04  4.86161967545E-04  5.07269194038E-04  5.29292843469E-04
  5.52272645064E-04  5.76250171505E-04  6.01268697114E-04  6.27373434196E-04
  6.54611509397E-04  6.83032200043E-04  7.12686768691E-04  7.43628841272E-04
  7.75914312543E-04  8.09601487886E-04  8.44751225098E-04  8.81427028920E-04
  9.19695169192E-04  9.59624775368E-04  1.00128795468E-03  1.04476000481E-03
  1.09011943750E-03  1.13744821491E-03  1.18683184403E-03  1.23835951856E-03
  1.29212433148E-03  1.34822341688E-03  1.40675813892E-03  1.46783423364E-03
  1.53156202153E-03  1.59805666748E-03  1.66743827520E-03  1.73983219436E-03
  1.81536920958E-03  1.89418582386E-03  1.97642437663E-03  2.06223346899E-03
  2.15176812895E-03  2.24519014210E-03  2.34266824041E-03  2.44437862191E-03
  2.55050478491E-03  2.66123896936E-03  2.77678085646E-03  2.89733910452E-03
  3.02313182098E-03  3.15438632556E-03  3.29133962214E-03  3.43423910708E-03
  3.58334304092E-03  3.73892102007E-03  3.90125373929E-03  4.07063511744E-03
  4.24737087791E-03  4.43178020126E-03  4.62419690505E-03  4.82496825982E-03
  5.03445735005E-03  5.25304259860E-03  5.48111918146E-03  5.71909949678E-03
  5.96741339698E-03  6.22651007471E-03  6.49685758473E-03  6.77894496485E-03
  7.07328222886E-03  7.38040106765E-03  7.70085743989E-03  8.03523061640E-03
  8.38412553186E-03  8.74817277160E-03  9.12803139255E-03  9.52438843348E-03
  9.93796078631E-03  1.03694973010E-02  1.08197789967E-02  1.12896206880E-02
  1.17798733154E-02  1.22914246178E-02  1.28252012179E-02  1.33821699921E-02
  1.39633406169E-02  1.45697664527E-02  1.52025468373E-02  1.58628300791E-02
  1.65518138402E-02  1.72707490514E-02  1.80209412145E-02  1.88037531061E-02
  1.96206079362E-02  2.04729913051E-02  2.13624545549E-02  2.22906169124E-02
  2.32591702024E-02  2.42698802177E-02  2.53245920682E-02  2.64252345396E-02
  2.75738158993E-02  2.87724444471E-02  3.00233114449E-02  3.13287141271E-02
  3.26910526449E-02  3.41128340024E-02  3.55966782466E-02  3.71453245339E-02
  3.87616394173E-02  4.04486202530E-02  4.22093984277E-02  4.40472565415E-02
  4.59656241143E-02  4.79680989851E-02  5.00584377334E-02  5.22405858644E-02
  5.45186674947E-02  5.68970123324E-02  5.93801585575E-02  6.19728622018E-02
  6.46801176487E-02  6.75071703014E-02  7.04595213303E-02  7.35429620505E-02
  7.67635765631E-02  8.01277643097E-02  8.36422658637E-02  8.73141823411E-02
  9.11509999565E-02  9.51606147486E-02  9.93513688909E-02  1.03732077093E-01
  1.08312061470E-01  1.13101196705E-01  1.18109943887E-01  1.23349405157E-01
  1.28831375001E-01  1.34568389718E-01  1.40573797416E-01  1.46861826358E-01
  1.53447659707E-01  1.60347524408E-01  1.67578778519E-01  1.75160018147E-01
  1.83111196891E-01  1.91453743510E-01  2.00210709243E-01  2.09406920193E-01
  2.19069151170E-01  2.29226315859E-01  2.39909660687E-01  2.51153041831E-01
  2.62993091413E-01  2.75469601122E-01  2.88625763749E-01  3.02508529365E-01
  3.17168970914E-01  3.32662709190E-01  3.49050289763E-01  3.66397753235E-01
  3.84777086638E-01  4.04266832585E-01  4.24952604660E-01  4.46927875743E-01
  4.70294543879E-01  4.95163671295E-01  5.21656306798E-01  5.49904155754E-01
  5.80050424716E-01  6.12250533352E-01  6.46672779298E-01  6.83498852971E-01
  7.22924166577E-01  7.65157860960E-01  8.10422161992E-01  8.58951088591E-01
  9.10988025140E-01  9.66781622221E-01  1.02657975265E+00  1.09062032643E+00
  1.15911849634E+00  1.23224879487E+00  1.31012118611E+00  1.39274975304E+00
  1.48001281700E+00  1.57160366149E+00  1.66697261748E+00  1.76526079803E+00
  1.86522983613E+00  1.96519364784E+00  2.06296028703E+00  2.15579776892E+00
  2.24043817050E+00  2.31313537883E+00  2.36979161466E+00  2.40615735060E+00
  2.41810227073E+00  2.40193446469E+00  2.35473453995E+00  2.27465872601E+00
  2.16117220108E+00  2.01519516332E+00  1.83917910518E+00  1.63715950642E+00
  1.41482941940E+00  1.17962425720E+00  9.40709954581E-01  7.08677283178E-01
  4.94738816259E-01  3.09366808469E-01  1.60577608353E-01  5.23444359743E-02
 -1.62677204106E-02 -5.08188545812E-02 -6.00496860477E-02 -5.37332525982E-02
 -4.05594698565E-02 -2.67290706191E-02 -1.55714387599E-02 -8.04605822836E-03
 -3.68281732348E-03 -1.48709930330E-03 -5.26564450291E-04 -1.62279800907E-04
 -4.31505974219E-05 -9.80238837971E-06 -1.88163265266E-06 -3.01542681352E-07
 -3.98131566954E-08 -4.26864511833E-09 -3.65837464899E-10 -2.46345695787E-11
 -1.27905728279E-12 -5.01639154988E-14 -1.44732716389E-15 -3.59008403006E-17
  0.00000000000E+00  0.00000000000E+00  0.00000000000E+00  0.00000000000E+00
  0.00000000000E+00  0.00000000000E+00  0.00000000000E+00  0.00000000000E+00
  0.00000000000E+00  0.00000000000E+00  0.00000000000E+00  0.00000000000E+00
  0.00000000000E+00
  </PP_BETA>
  <PP_BETA>
    2    1             Beta    L
   277
  5.58165749783E-09  6.07684573467E-09  6.61596566057E-09  7.20291476400E-09
  7.84193600189E-09  8.53764950044E-09  9.29508476053E-09  1.01197181224E-08
  1.10175093660E-08  1.19949507033E-08  1.30591078451E-08  1.42176733172E-08
  1.54790233769E-08  1.68522770930E-08  1.83473619084E-08  1.99750864092E-08
  2.17472174144E-08  2.36765664341E-08  2.57770818903E-08  2.80639492627E-08
  3.05537006018E-08  3.32643355683E-08  3.62154503987E-08  3.94283791192E-08
  4.29263491678E-08  4.67346492660E-08  5.08808109786E-08  5.53948075658E-08
  6.03092722870E-08  6.56597347180E-08  7.14848743584E-08  7.78268001767E-08
  8.47313697820E-08  9.22484884216E-08  1.00432508846E-07  1.09342582183E-07
  1.19043140655E-07  1.29604301047E-07  1.41102412271E-07  1.53620610134E-07
  1.67249379311E-07  1.82087259410E-07  1.98241507817E-07  2.15828913835E-07
  2.34976627232E-07  2.55823073254E-07  2.78518954086E-07  3.03228343986E-07
  3.30129878074E-07  3.59418049190E-07  3.91304569618E-07  4.26019977739E-07
  4.63815244718E-07  5.04963590111E-07  5.49762499216E-07  5.98535848498E-07
  6.51636225544E-07  7.09447515596E-07  7.72387632194E-07  8.40911687305E-07
  9.15514988544E-07  9.96736886579E-07  1.08516450005E-06  1.18143725464E-06
  1.28625098988E-06  1.40036357897E-06  1.52459990018E-06  1.65985810515E-06
  1.80711610332E-06  1.96743847874E-06  2.14198419942E-06  2.33201511915E-06
  2.53890520004E-06  2.76414995111E-06  3.00937795636E-06  3.27636189870E-06
  3.56703210549E-06  3.88348987817E-06  4.22802305553E-06  4.60312244162E-06
  5.01149981903E-06  5.45610761941E-06  5.94016010736E-06  6.46715687014E-06
  7.04090774877E-06  7.66556115578E-06  8.34563203348E-06  9.08603817012E-06
  9.89213219438E-06  1.07697422882E-05  1.17252125407E-05  1.27654505085E-05
  1.38979783790E-05  1.51309834166E-05  1.64733806576E-05  1.79348748887E-05
  1.95260327144E-05  2.12583589509E-05  2.31443780689E-05  2.51977264472E-05
  2.74332511177E-05  2.98671157224E-05  3.25169172861E-05  3.54018166883E-05
  3.85426734708E-05  4.19621979499E-05  4.56851170364E-05  4.97383508820E-05
  5.41512111638E-05  5.89556073242E-05  6.41862838233E-05  6.98810667983E-05
  7.60811417511E-05  8.28313543474E-05  9.01805098402E-05  9.81817856915E-05
  1.06893039091E-04  1.16377283184E-04  1.26703134611E-04  1.37945290016E-04
  1.50185074796E-04  1.63511049703E-04  1.78019632115E-04  1.93815818486E-04
  2.11013914356E-04  2.29738387285E-04  2.50124770725E-04  2.72320640553E-04
  2.96486685972E-04  3.22797889354E-04  3.51444786327E-04  3.82634856757E-04
  4.16594039610E-04  4.53568386412E-04  4.93825824731E-04  5.37658147390E-04
  5.85383141352E-04  6.37346878397E-04  6.93926297934E-04  7.55531945713E-04
  8.22610862086E-04  8.95650168575E-04  9.75180438602E-04  1.06177945194E-03
  1.15607673105E-03  1.25875823423E-03  1.37057113562E-03  1.49232955993E-03
  1.62492062647E-03  1.76931095021E-03  1.92655418149E-03  2.09779836362E-03
  2.28429513407E-03  2.48740868503E-03  2.70862643952E-03  2.94957008306E-03
  3.21200811685E-03  3.49786929789E-03  3.80925748767E-03  4.14846800138E-03
  4.51800540898E-03  4.92060303142E-03  5.35924445297E-03  5.83718744869E-03
  6.35798950284E-03  6.92553677630E-03  7.54407535387E-03  8.21824628587E-03
  8.95312255172E-03  9.75425353700E-03  1.06277093159E-02  1.15801342729E-02
  1.26188024567E-02  1.37516798958E-02  1.49874969652E-02  1.63358259368E-02
  1.78071624815E-02  1.94130266377E-02  2.11660660990E-02  2.30801730142E-02
  2.51706190125E-02  2.74541949358E-02  2.99493804120E-02  3.26765165856E-02
  3.56580129491E-02  3.89185658127E-02  4.24854082154E-02  4.63885830766E-02
  5.06612464498E-02  5.53400007129E-02  6.04652657672E-02  6.60816792468E-02
  7.22385362724E-02  7.89902630234E-02  8.63969290485E-02  9.45247940513E-02
  1.03446852325E-01  1.13243441034E-01  1.24002824696E-01  1.35821755229E-01
  1.48805994686E-01  1.63070787276E-01  1.78741189422E-01  1.95952209085E-01
  2.14848764553E-01  2.35585272578E-01  2.58324859277E-01  2.83238116175E-01