<PP_INFO>
Generated using "atomic" code by A. Dal Corso  (espresso distribution)     
Author: ADC   Generation date: 13Feb2006                             
Pt                                                                         
    1        The Pseudo was generated with a Scalar-Relativistic Calculation
    0 2.6000000E+00    L component and cutoff radius for Local Potential
nl pn  l   occ               Rcut            Rcut US             E pseu
6P  2  1  0.00      2.60000000000      2.60000000000     -0.10000000000
5D  3  2  9.00      2.10000000000      2.40000000000     -0.45136095309
5D  3  2  0.00      2.10000000000      2.40000000000     -0.20000000000
6S  1  0  1.00      2.60000000000      2.60000000000     -0.41593713885
</PP_INFO>


<PP_HEADER>
   0                   Version Number
  Pt                   Element
   US                  Ultrasoft pseudopotential
    T                  Nonlinear Core Correction
 SLA  PW   PBE  PBE    PBE  Exchange-Correlation functional
   10.00000000000      Z valence
  -53.13298188999      Total energy
  0.0000000  0.0000000 Suggested cutoff for wfc and rho
    2                  Max angular momentum component
 1547                  Number of points in mesh
    2    3             Number of Wavefunctions, Number of Projectors
 Wavefunctions         nl  l   occ
                       5D  2  9.00
                       6S  0  1.00
</PP_HEADER>


<PP_MESH>
  <PP_R>
  1.16907944302E-05  1.18082888676E-05  1.19269641437E-05  1.20468321261E-05
  1.21679048018E-05  1.22901942781E-05  1.24137127841E-05  1.25384726717E-05
  1.26644864171E-05  1.27917666216E-05  1.29203260134E-05  1.30501774487E-05
  1.31813339125E-05  1.33138085207E-05  1.34476145209E-05  1.35827652937E-05
  1.37192743544E-05  1.38571553539E-05  1.39964220805E-05  1.41370884610E-05
  1.42791685621E-05  1.44226765920E-05  1.45676269015E-05  1.47140339859E-05
  1.48619124860E-05  1.50112771896E-05  1.51621430335E-05  1.53145251044E-05
  1.54684386405E-05  1.56238990334E-05  1.57809218291E-05  1.59395227303E-05
  1.60997175970E-05  1.62615224488E-05  1.64249534665E-05  1.65900269932E-05
  1.67567595364E-05  1.69251677695E-05  1.70952685335E-05  1.72670788386E-05
  1.74406158660E-05  1.76158969695E-05  1.77929396774E-05  1.79717616941E-05
  1.81523809019E-05  1.83348153629E-05  1.85190833208E-05  1.87052032024E-05
  1.88931936199E-05  1.90830733726E-05  1.92748614484E-05  1.94685770265E-05
  1.96642394785E-05  1.98618683709E-05  2.00614834666E-05  2.02631047274E-05
  2.04667523155E-05  2.06724465960E-05  2.08802081383E-05  2.10900577189E-05
  2.13020163227E-05  2.15161051460E-05  2.17323455977E-05  2.19507593021E-05
  2.21713681007E-05  2.23941940546E-05  2.26192594466E-05  2.28465867834E-05
  2.30761987978E-05  2.33081184514E-05  2.35423689363E-05  2.37789736776E-05
  2.40179563362E-05  2.42593408104E-05  2.45031512389E-05  2.47494120029E-05
  2.49981477288E-05  2.52493832903E-05  2.55031438111E-05  2.57594546676E-05
  2.60183414910E-05  2.62798301702E-05  2.65439468544E-05  2.68107179553E-05
  2.70801701504E-05  2.73523303851E-05  2.76272258756E-05  2.79048841117E-05
  2.81853328595E-05  2.84686001641E-05  2.87547143524E-05  2.90437040361E-05
  2.93355981144E-05  2.96304257770E-05  2.99282165068E-05  3.02290000832E-05
  3.05328065848E-05  3.08396663926E-05  3.11496101926E-05  3.14626689797E-05
  3.17788740598E-05  3.20982570539E-05  3.24208499004E-05  3.27466848589E-05
  3.30757945132E-05  3.34082117745E-05  3.37439698848E-05  3.40831024202E-05
  3.44256432943E-05  3.47716267614E-05  3.51210874201E-05  3.54740602169E-05
  3.58305804492E-05  3.61906837694E-05  3.65544061882E-05  3.69217840781E-05
  3.72928541771E-05  3.76676535926E-05  3.80462198049E-05  3.84285906708E-05
  3.88148044279E-05  3.92048996977E-05  3.95989154902E-05  3.99968912072E-05
  4.03988666467E-05  4.08048820065E-05  4.12149778885E-05  4.16291953027E-05
  4.20475756711E-05  4.24701608320E-05  4.28969930445E-05  4.33281149920E-05
  4.37635697871E-05  4.42034009757E-05  4.46476525412E-05  4.50963689091E-05
  4.55495949516E-05  4.60073759914E-05  4.64697578073E-05  4.69367866376E-05
  4.74085091857E-05  4.78849726242E-05  4.83662245999E-05  4.88523132384E-05
  4.93432871489E-05  4.98391954292E-05  5.03400876706E-05  5.08460139627E-05
  5.13570248986E-05  5.18731715798E-05  5.23945056213E-05  5.29210791571E-05
  5.34529448449E-05  5.39901558718E-05  5.45327659592E-05  5.50808293686E-05
  5.56344009069E-05  5.61935359317E-05  5.67582903568E-05  5.73287206583E-05
  5.79048838796E-05  5.84868376376E-05  5.90746401281E-05  5.96683501318E-05
  6.02680270203E-05  6.08737307617E-05  6.14855219269E-05  6.21034616955E-05
  6.27276118620E-05  6.33580348420E-05  6.39947936783E-05  6.46379520473E-05
  6.52875742654E-05  6.59437252953E-05  6.66064707526E-05  6.72758769126E-05
  6.79520107163E-05  6.86349397777E-05  6.93247323903E-05  7.00214575339E-05
  7.07251848815E-05  7.14359848067E-05  7.21539283898E-05  7.28790874259E-05
  7.36115344315E-05  7.43513426518E-05  7.50985860684E-05  7.58533394062E-05
  7.66156781411E-05  7.73856785077E-05  7.81634175066E-05  7.89489729124E-05
  7.97424232813E-05  8.05438479590E-05  8.13533270886E-05  8.21709416187E-05
  8.29967733114E-05  8.38309047506E-05  8.46734193502E-05  8.55244013622E-05
  8.63839358857E-05  8.72521088748E-05  8.81290071474E-05  8.90147183942E-05
  8.99093311870E-05  9.08129349878E-05  9.17256201579E-05  9.26474779664E-05
  9.35786005999E-05  9.45190811714E-05  9.54690137298E-05  9.64284932691E-05
  9.73976157382E-05  9.83764780499E-05  9.93651780915E-05  1.00363814734E-04
  1.01372487841E-04  1.02391298281E-04  1.03420347937E-04  1.04459739714E-04
  1.05509577552E-04  1.06569966435E-04  1.07641012404E-04  1.08722822564E-04
  1.09815505096E-04  1.10919169271E-04  1.12033925455E-04  1.13159885125E-04
  1.14297160877E-04  1.15445866441E-04  1.16606116688E-04  1.17778027644E-04
  1.18961716501E-04  1.20157301628E-04  1.21364902586E-04  1.22584640135E-04
  1.23816636250E-04  1.25061014133E-04  1.26317898220E-04  1.27587414203E-04
  1.28869689034E-04  1.30164850941E-04  1.31473029441E-04  1.32794355354E-04
  1.34128960813E-04  1.35476979280E-04  1.36838545558E-04  1.38213795804E-04
  1.39602867546E-04  1.41005899690E-04  1.42423032542E-04  1.43854407815E-04
  1.45300168650E-04  1.46760459622E-04  1.48235426762E-04  1.49725217569E-04
  1.51229981022E-04  1.52749867600E-04  1.54285029291E-04  1.55835619614E-04
  1.57401793629E-04  1.58983707954E-04  1.60581520783E-04  1.62195391898E-04
  1.63825482686E-04  1.65471956160E-04  1.67134976967E-04  1.68814711411E-04
  1.70511327467E-04  1.72224994798E-04  1.73955884772E-04  1.75704170479E-04
  1.77470026750E-04  1.79253630171E-04  1.81055159105E-04  1.82874793705E-04
  1.84712715937E-04  1.86569109595E-04  1.88444160319E-04  1.90338055616E-04
  1.92250984878E-04  1.94183139398E-04  1.96134712394E-04  1.98105899024E-04
  2.00096896410E-04  2.02107903652E-04  2.04139121853E-04  2.06190754136E-04
  2.08263005666E-04  2.10356083670E-04  2.12470197458E-04  2.14605558443E-04
  2.16762380163E-04  2.18940878301E-04  2.21141270710E-04  2.23363777429E-04
  2.25608620713E-04  2.27876025047E-04  2.30166217173E-04  2.32479426113E-04
  2.34815883189E-04  2.37175822049E-04  2.39559478689E-04  2.41967091476E-04
  2.44398901175E-04  2.46855150966E-04  2.49336086479E-04  2.51841955809E-04
  2.54373009543E-04  2.56929500791E-04  2.59511685203E-04  2.62119820999E-04
  2.64754168996E-04  2.67414992631E-04  2.70102557988E-04  2.72817133825E-04
  2.75558991604E-04  2.78328405511E-04  2.81125652491E-04  2.83951012270E-04
  2.86804767387E-04  2.89687203220E-04  2.92598608014E-04  2.95539272913E-04
  2.98509491986E-04  3.01509562257E-04  3.04539783735E-04  3.07600459445E-04
  3.10691895458E-04  3.13814400919E-04  3.16968288081E-04  3.20153872337E-04
  3.23371472247E-04  3.26621409573E-04  3.29904009312E-04  3.33219599728E-04
  3.36568512381E-04  3.39951082165E-04  3.43367647342E-04  3.46818549569E-04
  3.50304133940E-04  3.53824749016E-04  3.57380746862E-04  3.60972483081E-04
  3.64600316849E-04  3.68264610952E-04  3.71965731823E-04  3.75704049577E-04
  3.79479938050E-04  3.83293774832E-04  3.87145941312E-04  3.91036822708E-04
  3.94966808112E-04  3.98936290526E-04  4.02945666902E-04  4.06995338180E-04
  4.11085709332E-04  4.15217189396E-04  4.19390191526E-04  4.23605133024E-04
  4.27862435389E-04  4.32162524353E-04  4.36505829931E-04  4.40892786455E-04
  4.45323832625E-04  4.49799411549E-04  4.54319970790E-04  4.58885962406E-04
  4.63497843001E-04  4.68156073766E-04  4.72861120529E-04  4.77613453798E-04
  4.82413548810E-04  4.87261885579E-04  4.92158948943E-04  4.97105228612E-04
  5.02101219218E-04  5.07147420364E-04  5.12244336675E-04  5.17392477847E-04
  5.22592358697E-04  5.27844499219E-04  5.33149424630E-04  5.38507665429E-04
  5.43919757442E-04  5.49386241885E-04  5.54907665410E-04  5.60484580163E-04
  5.66117543842E-04  5.71807119747E-04  5.77553876840E-04  5.83358389803E-04
  5.89221239090E-04  5.95143010993E-04  6.01124297692E-04  6.07165697322E-04
  6.13267814028E-04  6.19431258027E-04  6.25656645667E-04  6.31944599493E-04
  6.38295748306E-04  6.44710727226E-04  6.51190177755E-04  6.57734747845E-04
  6.64345091958E-04  6.71021871134E-04  6.77765753056E-04  6.84577412118E-04
  6.91457529492E-04  6.98406793195E-04  7.05425898159E-04  7.12515546301E-04
  7.19676446591E-04  7.26909315126E-04  7.34214875198E-04  7.41593857370E-04
  7.49046999545E-04  7.56575047044E-04  7.64178752679E-04  7.71858876825E-04
  7.79616187503E-04  7.87451460449E-04  7.95365479197E-04  8.03359035156E-04
  8.11432927688E-04  8.19587964189E-04  8.27824960169E-04  8.36144739335E-04
  8.44548133672E-04  8.53035983526E-04  8.61609137689E-04  8.70268453484E-04
  8.79014796850E-04  8.87849042428E-04  8.96772073649E-04  9.05784782826E-04
  9.14888071236E-04  9.24082849215E-04  9.33370036249E-04  9.42750561065E-04
  9.52225361722E-04  9.61795385709E-04  9.71461590036E-04  9.81224941332E-04
  9.91086415940E-04  1.00104700001E-03  1.01110768962E-03  1.02126949084E-03
  1.03153341987E-03  1.04190050309E-03  1.05237177723E-03  1.06294828943E-03
  1.07363109734E-03  1.08442126925E-03  1.09531988420E-03  1.10632803204E-03
  1.11744681362E-03  1.12867734080E-03  1.14002073666E-03  1.15147813554E-03
  1.16305068320E-03  1.17473953689E-03  1.18654586552E-03  1.19847084972E-03
  1.21051568200E-03  1.22268156687E-03  1.23496972090E-03  1.24738137294E-03
  1.25991776416E-03  1.27258014820E-03  1.28536979132E-03  1.29828797249E-03
  1.31133598353E-03  1.32451512927E-03  1.33782672763E-03  1.35127210977E-03
  1.36485262025E-03  1.37856961713E-03  1.39242447211E-03  1.40641857071E-03
  1.42055331234E-03  1.43483011048E-03  1.44925039283E-03  1.46381560142E-03
  1.47852719280E-03  1.49338663812E-03  1.50839542336E-03  1.52355504939E-03
  1.53886703220E-03  1.55433290299E-03  1.56995420837E-03  1.58573251048E-03
  1.60166938716E-03  1.61776643212E-03  1.63402525506E-03  1.65044748189E-03
  1.66703475485E-03  1.68378873267E-03  1.70071109077E-03  1.71780352139E-03
  1.73506773380E-03  1.75250545443E-03  1.77011842706E-03  1.78790841301E-03
  1.80587719130E-03  1.82402655880E-03  1.84235833048E-03  1.86087433953E-03
  1.87957643757E-03  1.89846649481E-03  1.91754640029E-03  1.93681806200E-03
  1.95628340714E-03  1.97594438225E-03  1.99580295344E-03  2.01586110658E-03
  2.03612084752E-03  2.05658420225E-03  2.07725321710E-03  2.09812995901E-03
  2.11921651566E-03  2.14051499573E-03  2.16202752908E-03  2.18375626699E-03
  2.20570338235E-03  2.22787106988E-03  2.25026154637E-03  2.27287705090E-03
  2.29571984502E-03  2.31879221304E-03  2.34209646221E-03  2.36563492299E-03
  2.38940994922E-03  2.41342391845E-03  2.43767923207E-03  2.46217831565E-03
  2.48692361911E-03  2.51191761701E-03  2.53716280876E-03  2.56266171891E-03
  2.58841689737E-03  2.61443091967E-03  2.64070638724E-03  2.66724592765E-03
  2.69405219488E-03  2.72112786957E-03  2.74847565932E-03  2.77609829892E-03
  2.80399855067E-03  2.83217920461E-03  2.86064307883E-03  2.88939301974E-03
  2.91843190236E-03  2.94776263060E-03  2.97738813756E-03  3.00731138582E-03
  3.03753536772E-03  3.06806310569E-03  3.09889765253E-03  3.13004209171E-03
  3.16149953771E-03  3.19327313630E-03  3.22536606487E-03  3.25778153273E-03
  3.29052278146E-03  3.32359308520E-03  3.35699575103E-03  3.39073411923E-03
  3.42481156366E-03  3.45923149211E-03  3.49399734659E-03  3.52911260371E-03
  3.56458077504E-03  3.60040540742E-03  3.63659008333E-03  3.67313842128E-03
  3.71005407614E-03  3.74734073950E-03  3.78500214005E-03  3.82304204397E-03
  3.86146425528E-03  3.90027261624E-03  3.93947100771E-03  3.97906334956E-03
  4.01905360106E-03  4.05944576127E-03  4.10024386944E-03  4.14145200541E-03
  4.18307429004E-03  4.22511488558E-03  4.26757799613E-03  4.31046786804E-03
  4.35378879032E-03  4.39754509511E-03  4.44174115808E-03  4.48638139886E-03
  4.53147028152E-03  4.57701231499E-03  4.62301205350E-03  4.66947409707E-03
  4.71640309194E-03  4.76380373105E-03  4.81168075451E-03  4.86003895004E-03
  4.90888315353E-03  4.95821824942E-03  5.00804917126E-03  5.05838090220E-03
  5.10921847544E-03  5.16056697479E-03  5.21243153514E-03  5.26481734298E-03
  5.31772963694E-03  5.37117370830E-03  5.42515490151E-03  5.47967861473E-03
  5.53475030037E-03  5.59037546566E-03  5.64655967315E-03  5.70330854132E-03
  5.76062774509E-03  5.81852301644E-03  5.87700014494E-03  5.93606497835E-03
  5.99572342320E-03  6.05598144540E-03  6.11684507078E-03  6.17832038577E-03
  6.24041353795E-03  6.30313073668E-03  6.36647825374E-03  6.43046242392E-03
  6.49508964571E-03  6.56036638188E-03  6.62629916015E-03  6.69289457386E-03
  6.76015928260E-03  6.82810001291E-03  6.89672355891E-03  6.96603678301E-03
  7.03604661659E-03  7.10676006070E-03  7.17818418674E-03  7.25032613717E-03
  7.32319312627E-03  7.39679244078E-03  7.47113144069E-03  7.54621755998E-03
  7.62205830731E-03  7.69866126682E-03  7.77603409888E-03  7.85418454083E-03
  7.93312040777E-03  8.01284959337E-03  8.09338007060E-03  8.17471989259E-03
  8.25687719337E-03  8.33986018876E-03  8.42367717712E-03  8.50833654021E-03
  8.59384674405E-03  8.68021633972E-03  8.76745396426E-03  8.85556834150E-03
  8.94456828296E-03  9.03446268870E-03  9.12526054824E-03  9.21697094143E-03
  9.30960303941E-03  9.40316610544E-03  9.49766949592E-03  9.59312266126E-03
  9.68953514687E-03  9.78691659406E-03  9.88527674107E-03  9.98462542399E-03
  1.00849725778E-02  1.01863282372E-02  1.02887025380E-02  1.03921057176E-02
  1.04965481164E-02  1.06020401788E-02  1.07085924540E-02  1.08162155974E-02
  1.09249203714E-02  1.10347176465E-02  1.11456184025E-02  1.12576337298E-02
  1.13707748297E-02  1.14850530166E-02  1.16004797184E-02  1.17170664778E-02
  1.18348249537E-02  1.19537669219E-02  1.20739042767E-02  1.21952490321E-02
  1.23178133225E-02  1.24416094045E-02  1.25666496578E-02  1.26929465865E-02
  1.28205128205E-02  1.29493611165E-02  1.30795043593E-02  1.32109555635E-02
  1.33437278743E-02  1.34778345689E-02  1.36132890583E-02  1.37501048879E-02
  1.38882957394E-02  1.40278754321E-02  1.41688579240E-02  1.43112573136E-02
  1.44550878408E-02  1.46003638888E-02  1.47470999853E-02  1.48953108042E-02
  1.50450111666E-02  1.51962160426E-02  1.53489405528E-02  1.55031999700E-02
  1.56590097200E-02  1.58163853841E-02  1.59753426998E-02  1.61358975632E-02
  1.62980660298E-02  1.64618643165E-02  1.66273088034E-02  1.67944160350E-02
  1.69632027223E-02  1.71336857439E-02  1.73058821484E-02  1.74798091555E-02
  1.76554841582E-02  1.78329247239E-02  1.80121485970E-02  1.81931736999E-02
  1.83760181354E-02  1.85607001880E-02  1.87472383261E-02  1.89356512036E-02
  1.91259576621E-02  1.93181767322E-02  1.95123276361E-02  1.97084297891E-02
  1.99065028014E-02  2.01065664806E-02  2.03086408333E-02  2.05127460669E-02
  2.07189025922E-02  2.09271310251E-02  2.11374521885E-02  2.13498871147E-02
  2.15644570474E-02  2.17811834438E-02  2.20000879767E-02  2.22211925368E-02
  2.24445192346E-02  2.26700904030E-02  2.28979285994E-02  2.31280566077E-02
  2.33604974409E-02  2.35952743434E-02  2.38324107929E-02  2.40719305034E-02
  2.43138574270E-02  2.45582157566E-02  2.48050299282E-02  2.50543246235E-02
  2.53061247722E-02  2.55604555544E-02  2.58173424035E-02  2.60768110083E-02
  2.63388873159E-02  2.66035975343E-02  2.68709681345E-02  2.71410258540E-02
  2.74137976987E-02  2.76893109460E-02  2.79675931474E-02  2.82486721315E-02
  2.85325760063E-02  2.88193331625E-02  2.91089722761E-02  2.94015223111E-02
  2.96970125228E-02  2.99954724606E-02  3.02969319706E-02  3.06014211990E-02
  3.09089705951E-02  3.12196109140E-02  3.15333732200E-02  3.18502888895E-02
  3.21703896146E-02  3.24937074054E-02  3.28202745940E-02  3.31501238374E-02
  3.34832881208E-02  3.38198007610E-02  3.41596954094E-02  3.45030060558E-02
  3.48497670315E-02  3.52000130130E-02  3.55537790252E-02  3.59111004449E-02
  3.62720130045E-02  3.66365527957E-02  3.70047562727E-02  3.73766602561E-02
  3.77523019367E-02  3.81317188790E-02  3.85149490250E-02  3.89020306979E-02
  3.92930026063E-02  3.96879038478E-02  4.00867739126E-02  4.04896526883E-02
  4.08965804630E-02  4.13075979299E-02  4.17227461909E-02  4.21420667613E-02
  4.25656015735E-02  4.29933929814E-02  4.34254837644E-02  4.38619171319E-02
  4.43027367277E-02  4.47479866341E-02  4.51977113765E-02  4.56519559276E-02
  4.61107657124E-02  4.65741866122E-02  4.70422649695E-02  4.75150475924E-02
  4.79925817598E-02  4.84749152252E-02  4.89620962226E-02  4.94541734705E-02
  4.99511961769E-02  5.04532140445E-02  5.09602772756E-02  5.14724365768E-02
  5.19897431647E-02  5.25122487701E-02  5.30400056442E-02  5.35730665631E-02
  5.41114848333E-02  5.46553142970E-02  5.52046093378E-02  5.57594248854E-02
  5.63198164220E-02  5.68858399872E-02  5.74575521838E-02  5.80350101835E-02
  5.86182717326E-02  5.92073951577E-02  5.98024393716E-02  6.04034638794E-02
  6.10105287838E-02  6.16236947920E-02  6.22430232210E-02  6.28685760042E-02
  6.35004156974E-02  6.41386054850E-02  6.47832091867E-02  6.54342912633E-02
  6.60919168235E-02  6.67561516305E-02  6.74270621083E-02  6.81047153485E-02
  6.87891791169E-02  6.94805218607E-02  7.01788127145E-02  7.08841215080E-02
  7.15965187728E-02  7.23160757491E-02  7.30428643932E-02  7.37769573847E-02
  7.45184281334E-02  7.52673507870E-02  7.60238002383E-02  7.67878521331E-02
  7.75595828771E-02  7.83390696440E-02  7.91263903831E-02  7.99216238272E-02
  8.07248495003E-02  8.15361477257E-02  8.23555996337E-02  8.31832871703E-02
  8.40192931050E-02  8.48637010390E-02  8.57165954138E-02  8.65780615196E-02
  8.74481855037E-02  8.83270543792E-02  8.92147560338E-02  9.01113792383E-02
  9.10170136559E-02  9.19317498506E-02  9.28556792969E-02  9.37888943886E-02
  9.47314884478E-02  9.56835557349E-02  9.66451914572E-02  9.76164917792E-02
  9.85975538318E-02  9.95884757219E-02  1.00589356543E-01  1.01600296383E-01
  1.02621396337E-01  1.03652758517E-01  1.04694486059E-01  1.05746683136E-01
  1.06809454970E-01  1.07882907839E-01  1.08967149088E-01  1.10062287143E-01
  1.11168431519E-01  1.12285692830E-01  1.13414182804E-01  1.14554014291E-01
  1.15705301275E-01  1.16868158885E-01  1.18042703409E-01  1.19229052301E-01
  1.20427324198E-01  1.21637638928E-01  1.22860117523E-01  1.24094882232E-01
  1.25342056532E-01  1.26601765143E-01  1.27874134036E-01  1.29159290449E-01
  1.30457362898E-01  1.31768481193E-01  1.33092776445E-01  1.34430381086E-01
  1.35781428877E-01  1.37146054925E-01  1.38524395691E-01  1.39916589013E-01
  1.41322774111E-01  1.42743091603E-01  1.44177683524E-01  1.45626693333E-01
  1.47090265933E-01  1.48568547682E-01  1.50061686410E-01  1.51569831431E-01
  1.53093133562E-01  1.54631745134E-01  1.56185820009E-01  1.57755513596E-01
  1.59340982866E-01  1.60942386368E-01  1.62559884241E-01  1.64193638239E-01
  1.65843811738E-01  1.67510569756E-01  1.69194078970E-01  1.70894507733E-01
  1.72612026090E-01  1.74346805793E-01  1.76099020322E-01  1.77868844899E-01
  1.79656456509E-01  1.81462033915E-01  1.83285757675E-01  1.85127810164E-01
  1.86988375588E-01  1.88867640006E-01  1.90765791345E-01  1.92683019421E-01
  1.94619515961E-01  1.96575474614E-01  1.98551090979E-01  2.00546562618E-01
  2.02562089080E-01  2.04597871920E-01  2.06654114718E-01  2.08731023100E-01
  2.10828804758E-01  2.12947669472E-01  2.15087829130E-01  2.17249497751E-01
  2.19432891502E-01  2.21638228725E-01  2.23865729956E-01  2.26115617947E-01
  2.28388117687E-01  2.30683456430E-01  2.33001863711E-01  2.35343571372E-01
  2.37708813586E-01  2.40097826880E-01  2.42510850157E-01  2.44948124721E-01
  2.47409894301E-01  2.49896405077E-01  2.52407905702E-01  2.54944647328E-01
  2.57506883631E-01  2.60094870836E-01  2.62708867746E-01  2.65349135761E-01
  2.68015938911E-01  2.70709543879E-01  2.73430220026E-01  2.76178239423E-01
  2.78953876874E-01  2.81757409946E-01  2.84589118993E-01  2.87449287189E-01
  2.90338200554E-01  2.93256147980E-01  2.96203421266E-01  2.99180315140E-01
  3.02187127296E-01  3.05224158416E-01  3.08291712206E-01  3.11390095424E-01
  3.14519617912E-01  3.17680592623E-01  3.20873335658E-01  3.24098166294E-01
  3.27355407017E-01  3.30645383554E-01  3.33968424904E-01  3.37324863375E-01
  3.40715034614E-01  3.44139277640E-01  3.47597934880E-01  3.51091352204E-01
  3.54619878955E-01  3.58183867990E-01  3.61783675710E-01  3.65419662100E-01
  3.69092190760E-01  3.72801628946E-01  3.76548347606E-01  3.80332721415E-01
  3.84155128813E-01  3.88015952044E-01  3.91915577193E-01  3.95854394227E-01
  3.99832797030E-01  4.03851183445E-01  4.07909955316E-01  4.12009518522E-01
  4.16150283024E-01  4.20332662900E-01  4.24557076393E-01  4.28823945948E-01
  4.33133698254E-01  4.37486764292E-01  4.41883579370E-01  4.46324583174E-01
  4.50810219809E-01  4.55340937841E-01  4.59917190347E-01  4.64539434955E-01
  4.69208133893E-01  4.73923754036E-01  4.78686766949E-01  4.83497648938E-01
  4.88356881095E-01  4.93264949347E-01  4.98222344504E-01  5.03229562312E-01
  5.08287103495E-01  5.13395473811E-01  5.18555184103E-01  5.23766750346E-01
  5.29030693700E-01  5.34347540564E-01  5.39717822628E-01  5.45142076924E-01
  5.50620845882E-01  5.56154677383E-01  5.61744124815E-01  5.67389747128E-01
  5.73092108888E-01  5.78851780337E-01  5.84669337447E-01  5.90545361977E-01
  5.96480441536E-01  6.02475169636E-01  6.08530145755E-01  6.14645975395E-01
  6.20823270145E-01  6.27062647740E-01  6.33364732122E-01  6.39730153505E-01
  6.46159548437E-01  6.52653559862E-01  6.59212837186E-01  6.65838036344E-01
  6.72529819860E-01  6.79288856919E-01  6.86115823429E-01  6.93011402094E-01
  6.99976282476E-01  7.07011161070E-01  7.14116741369E-01  7.21293733938E-01
  7.28542856480E-01  7.35864833916E-01  7.43260398448E-01  7.50730289640E-01
  7.58275254486E-01  7.65896047489E-01  7.73593430735E-01  7.81368173970E-01
  7.89221054672E-01  7.97152858138E-01  8.05164377554E-01  8.13256414079E-01
  8.21429776922E-01  8.29685283428E-01  8.38023759154E-01  8.46446037954E-01
  8.54952962063E-01  8.63545382181E-01  8.72224157557E-01  8.80990156075E-01
  8.89844254343E-01  8.98787337778E-01  9.07820300696E-01  9.16944046400E-01
  9.26159487273E-01  9.35467544867E-01  9.44869149995E-01  9.54365242825E-01
  9.63956772975E-01  9.73644699605E-01  9.83429991517E-01  9.93313627247E-01
  1.00329659517E+00  1.01337989358E+00  1.02356453083E+00  1.03385152539E+00
  1.04424190596E+00  1.05473671159E+00  1.06533699177E+00  1.07604380654E+00
  1.08685822659E+00  1.09778133336E+00  1.10881421918E+00  1.11995798735E+00
  1.13121375225E+00  1.14258263947E+00  1.15406578590E+00  1.16566433988E+00
  1.17737946126E+00  1.18921232157E+00  1.20116410410E+00  1.21323600404E+00
  1.22542922859E+00  1.23774499709E+00  1.25018454112E+00  1.26274910464E+00
  1.27543994413E+00  1.28825832867E+00  1.30120554012E+00  1.31428287321E+00
  1.32749163568E+00  1.34083314842E+00  1.35430874560E+00  1.36791977478E+00
  1.38166759707E+00  1.39555358727E+00  1.40957913400E+00  1.42374563982E+00
  1.43805452138E+00  1.45250720960E+00  1.46710514975E+00  1.48184980163E+00
  1.49674263973E+00  1.51178515334E+00  1.52697884673E+00  1.54232523927E+00
  1.55782586562E+00  1.57348227586E+00  1.58929603564E+00  1.60526872634E+00
  1.62140194526E+00  1.63769730572E+00  1.65415643727E+00  1.67078098585E+00
  1.68757261392E+00  1.70453300066E+00  1.72166384211E+00  1.73896685139E+00
  1.75644375880E+00  1.77409631205E+00  1.79192627641E+00  1.80993543489E+00
  1.82812558842E+00  1.84649855604E+00  1.86505617505E+00  1.88380030123E+00
  1.90273280901E+00  1.92185559165E+00  1.94117056146E+00  1.96067964994E+00
  1.98038480802E+00  2.00028800624E+00  2.02039123491E+00  2.04069650440E+00
  2.06120584524E+00  2.08192130838E+00  2.10284496538E+00  2.12397890864E+00
  2.14532525155E+00  2.16688612878E+00  2.18866369643E+00  2.21066013227E+00
  2.23287763596E+00  2.25531842928E+00  2.27798475633E+00  2.30087888374E+00
  2.32400310096E+00  2.34735972043E+00  2.37095107783E+00  2.39477953231E+00
  2.41884746674E+00  2.44315728793E+00  2.46771142689E+00  2.49251233904E+00
  2.51756250451E+00  2.54286442833E+00  2.56842064070E+00  2.59423369728E+00
  2.62030617940E+00  2.64664069431E+00  2.67323987550E+00  2.70010638291E+00
  2.72724290320E+00  2.75465215006E+00  2.78233686442E+00  2.81029981479E+00
  2.83854379749E+00  2.86707163693E+00  2.89588618592E+00  2.92499032595E+00
  2.95438696744E+00  2.98407905010E+00  3.01406954314E+00  3.04436144566E+00
  3.07495778685E+00  3.10586162638E+00  3.13707605467E+00  3.16860419317E+00
  3.20044919474E+00  3.23261424389E+00  3.26510255716E+00  3.29791738341E+00
  3.33106200414E+00  3.36453973385E+00  3.39835392034E+00  3.43250794505E+00
  3.46700522341E+00  3.50184920519E+00  3.53704337480E+00  3.57259125171E+00
  3.60849639071E+00  3.64476238236E+00  3.68139285328E+00  3.71839146656E+00
  3.75576192208E+00  3.79350795693E+00  3.83163334573E+00  3.87014190106E+00
  3.90903747381E+00  3.94832395356E+00  3.98800526899E+00  4.02808538828E+00
  4.06856831946E+00  4.10945811086E+00  4.15075885150E+00  4.19247467149E+00
  4.23460974243E+00  4.27716827788E+00  4.32015453372E+00  4.36357280861E+00
  4.40742744442E+00  4.45172282665E+00  4.49646338487E+00  4.54165359318E+00
  4.58729797063E+00  4.63340108170E+00  4.67996753673E+00  4.72700199243E+00
  4.77450915226E+00  4.82249376698E+00  4.87096063510E+00  4.91991460335E+00
  4.96936056715E+00  5.01930347115E+00  5.06974830968E+00  5.12070012727E+00
  5.17216401914E+00  5.22414513172E+00  5.27664866316E+00  5.32967986387E+00
  5.38324403701E+00  5.43734653904E+00  5.49199278025E+00  5.54718822531E+00
  5.60293839383E+00  5.65924886085E+00  5.71612525747E+00  5.77357327138E+00
  5.83159864743E+00  5.89020718820E+00  5.94940475461E+00  6.00919726644E+00
  6.06959070301E+00  6.13059110371E+00  6.19220456863E+00  6.25443725916E+00
  6.31729539863E+00  6.38078527291E+00  6.44491323103E+00  6.50968568584E+00
  6.57510911465E+00  6.64119005985E+00  6.70793512959E+00  6.77535099843E+00
  6.84344440802E+00  6.91222216775E+00  6.98169115546E+00  7.05185831810E+00
  7.12273067245E+00  7.19431530581E+00  7.26661937669E+00  7.33965011556E+00
  7.41341482556E+00  7.48792088322E+00  7.56317573921E+00  7.63918691908E+00
  7.71596202400E+00  7.79350873156E+00  7.87183479648E+00  7.95094805145E+00
  8.03085640784E+00  8.11156785657E+00  8.19309046884E+00  8.27543239699E+00
  8.35860187527E+00  8.44260722071E+00  8.52745683390E+00  8.61315919989E+00
  8.69972288897E+00  8.78715655759E+00  8.87546894919E+00  8.96466889508E+00
  9.05476531533E+00  9.14576721965E+00  9.23768370832E+00  9.33052397306E+00
  9.42429729797E+00  9.51901306047E+00  9.61468073220E+00  9.71130988002E+00
  9.80891016692E+00  9.90749135301E+00  1.00070632965E+01  1.01076359546E+01
  1.02092193848E+01  1.03118237454E+01  1.04154592970E+01  1.05201364032E+01
  1.06258655318E+01  1.07326572558E+01  1.08405222545E+01  1.09494713144E+01
  1.10595153306E+01  1.11706653076E+01  1.12829323604E+01  1.13963277158E+01
  1.15108627135E+01  1.16265488070E+01  1.17433975651E+01  1.18614206728E+01
  1.19806299324E+01  1.21010372650E+01  1.22226547114E+01  1.23454944335E+01
  1.24695687153E+01  1.25948899643E+01  1.27214707129E+01  1.28493236191E+01
  1.29784614684E+01  1.31088971746E+01  1.32406437815E+01  1.33737144639E+01
  1.35081225287E+01  1.36438814172E+01  1.37810047051E+01  1.39195061049E+01
  1.40593994670E+01  1.42006987808E+01  1.43434181762E+01  1.44875719255E+01
  1.46331744440E+01  1.47802402921E+01  1.49287841766E+01  1.50788209519E+01
  1.52303656219E+01  1.53834333412E+01  1.55380394166E+01  1.56941993089E+01
  1.58519286342E+01  1.60112431656E+01  1.61721588346E+01  1.63346917330E+01
  1.64988581142E+01  1.66646743949E+01  1.68321571570E+01  1.70013231488E+01
  1.71721892871E+01  1.73447726586E+01  1.75190905219E+01  1.76951603088E+01
  1.78729996265E+01  1.80526262590E+01  1.82340581692E+01  1.84173135005E+01
  1.86024105784E+01  1.87893679129E+01  1.89782041998E+01  1.91689383230E+01
  1.93615893559E+01  1.95561765640E+01  1.97527194060E+01  1.99512375364E+01
  2.01517508072E+01  2.03542792698E+01  2.05588431773E+01  2.07654629863E+01
  2.09741593589E+01  2.11849531649E+01  2.13978654839E+01  2.16129176073E+01
  2.18301310404E+01  2.20495275048E+01  2.22711289404E+01  2.24949575074E+01
  2.27210355889E+01  2.29493857929E+01  2.31800309546E+01  2.34129941387E+01
  2.36482986417E+01  2.38859679943E+01  2.41260259636E+01  2.43684965556E+01
  2.46134040176E+01  2.48607728405E+01  2.51106277614E+01  2.53629937660E+01
  2.56178960911E+01  2.58753602271E+01  2.61354119208E+01  2.63980771774E+01
  2.66633822637E+01  2.69313537105E+01  2.72020183151E+01  2.74754031442E+01
  2.77515355365E+01  2.80304431055E+01  2.83121537421E+01  2.85966956178E+01
  2.88840971868E+01  2.91743871896E+01  2.94675946554E+01  2.97637489053E+01
  3.00628795548E+01  3.03650165174E+01  3.06701900069E+01  3.09784305410E+01
  3.12897689439E+01  3.16042363498E+01  3.19218642057E+01  3.22426842746E+01