<PP_INFO>
Generated using ld1 code (trou)
Author: P. Giannozzi  Generation date: 1998?
Info: Sulfur BLYP 3s2 3p4, l=1 local, Martins-Troullier
    0        The Pseudo was generated with a Non-Relativistic Calculation
  0.00000000000E+00    Local Potential cutoff radius
nl pn  l   occ               Rcut            Rcut US             E pseu
3S  0  0  2.00      0.00000000000      0.00000000000      0.00000000000
3P  0  1  4.00      0.00000000000      0.00000000000      0.00000000000
</PP_INFO>


<PP_HEADER>
   0                   Version Number
   S                   Element
   NC                  Norm - Conserving pseudopotential
    F                  Nonlinear Core Correction
 SLA  LYP  B88  BLYP   BLYP Exchange-Correlation functional
    6.00000000000      Z valence
    0.00000000000      Total energy
  0.0000000  0.0000000 Suggested cutoff for wfc and rho
    0                  Max angular momentum component
  299                  Number of points in mesh
    2    1             Number of Wavefunctions, Number of Projectors
 Wavefunctions         nl  l   occ
                       3S  0  2.00
                       3P  1  4.00
</PP_HEADER>


<PP_MESH>
  <PP_R>
  2.09664142439E-05  2.20413852893E-05  2.31714712787E-05  2.43594980158E-05
  2.56084361862E-05  2.69214087860E-05  2.83016989304E-05  2.97527580639E-05
  3.12782145900E-05  3.28818829448E-05  3.45677731342E-05  3.63401007621E-05
  3.82032975706E-05  4.01620225222E-05  4.22211734496E-05  4.43858993027E-05
  4.66616130235E-05  4.90540050819E-05  5.15690577041E-05  5.42130598317E-05
  5.69926228472E-05  5.99146971059E-05  6.29865893155E-05  6.62159808067E-05
  6.96109467403E-05  7.31799762994E-05  7.69319939171E-05  8.08763815916E-05
  8.50230023467E-05  8.93822248942E-05  9.39649495611E-05  9.87826355460E-05
  1.03847329573E-04  1.09171696016E-04  1.14769048564E-04  1.20653383514E-04
  1.26839414768E-04  1.33342610627E-04  1.40179232468E-04  1.47366375406E-04
  1.54922011042E-04  1.62865032401E-04  1.71215301173E-04  1.79993697381E-04
  1.89222171586E-04  1.98923799782E-04  2.09122841092E-04  2.19844798432E-04
  2.31116482280E-04  2.42966077717E-04  2.55423214904E-04  2.68519043172E-04
  2.82286308913E-04  2.96759437463E-04  3.11974619182E-04  3.27969899949E-04
  3.44785276298E-04  3.62462795428E-04  3.81046660345E-04  4.00583340391E-04
  4.21121687443E-04  4.42713058066E-04  4.65411441933E-04  4.89273596827E-04
  5.14359190564E-04  5.40730950195E-04  5.68454818856E-04  5.97600120659E-04
  6.28239734040E-04  6.60450273991E-04  6.94312283640E-04  7.29910435650E-04
  7.67333743942E-04  8.06675786280E-04  8.48034938263E-04  8.91514619312E-04
  9.37223551280E-04  9.85276030303E-04  1.03579221261E-03  1.08889841497E-03
  1.14472743055E-03  1.20341886096E-03  1.26511946536E-03  1.32998352740E-03
  1.39817324101E-03  1.46985911600E-03  1.54522040440E-03  1.62444554867E-03
  1.70773265296E-03  1.79528997839E-03  1.88733646389E-03  1.98410227363E-03
  2.08582937252E-03  2.19277213130E-03  2.30519796258E-03  2.42338798948E-03
  2.54763774865E-03  2.67825792919E-03  2.81557514960E-03  2.95993277445E-03
  3.11169177299E-03  3.27123162178E-03  3.43895125353E-03  3.61527005468E-03
  3.80062891408E-03  3.99549132542E-03  4.20034454623E-03  4.41570081628E-03
  4.64209863840E-03  4.88010412507E-03  5.13031241399E-03  5.39334915621E-03
  5.66987208059E-03  5.96057263847E-03  6.26617773268E-03  6.58745153512E-03
  6.92519739765E-03  7.28025986084E-03  7.65352676581E-03  8.04593147424E-03
  8.45845520229E-03  8.89212947416E-03  9.34803870141E-03  9.82732289460E-03
  1.03311805138E-02  1.08608714657E-02  1.14177202533E-02  1.20031192888E-02
  1.26185323747E-02  1.32654983642E-02  1.39456350093E-02  1.46606430059E-02
  1.54123102464E-02  1.62025162904E-02  1.70332370646E-02  1.79065498038E-02
  1.88246382445E-02  1.97897980862E-02  2.08044427311E-02  2.18711093194E-02
  2.29924650732E-02  2.41713139659E-02  2.54106037338E-02  2.67134332468E-02
  2.80830602573E-02  2.95229095463E-02  3.10365814870E-02  3.26278610476E-02
  3.43007272559E-02  3.60593631488E-02  3.79081662320E-02  3.98517594764E-02
  4.18950028772E-02  4.40430056074E-02  4.63011387926E-02  4.86750489420E-02
  5.11706720674E-02  5.37942485266E-02  5.65523386272E-02  5.94518390313E-02
  6.25000000000E-02  6.57044435235E-02  6.90731823797E-02  7.26146401705E-02
  7.63376723850E-02  8.02515885430E-02  8.43661754735E-02  8.86917217871E-02
  9.32390436026E-02  9.80195115931E-02  1.03045079419E-01  1.08328313617E-01
  1.13882425024E-01  1.19721301813E-01  1.25859544217E-01  1.32312501038E-01
  1.39096308031E-01  1.46227928245E-01  1.53725194447E-01  1.61606853707E-01
  1.69892614279E-01  1.78603194879E-01  1.87760376497E-01  1.97387056856E-01
  2.07507307671E-01  2.18146434841E-01  2.29331041726E-01  2.41089095669E-01
  2.53449997928E-01  2.66444657198E-01  2.80105566896E-01  2.94466886412E-01
  3.09564526525E-01  3.25436239199E-01  3.42121711983E-01  3.59662667250E-01
  3.78102966526E-01  3.97488720163E-01  4.17868402642E-01  4.39292973787E-01
  4.61816006183E-01  4.85493819144E-01  5.10385619535E-01  5.36553649824E-01
  5.64063343715E-01  5.92983489772E-01  6.23386403426E-01  6.55348107795E-01
  6.88948523790E-01  7.24271669951E-01  7.61405872544E-01  8.00443986416E-01
  8.41483627188E-01  8.84627415336E-01  9.29983232805E-01  9.77664492762E-01
  1.02779042319E+00  1.08048636504E+00  1.13588408559E+00  1.19412210801E+00
  1.25534605770E+00  1.31970902641E+00  1.38737195509E+00  1.45850403631E+00
  1.53328313732E+00  1.61189624482E+00  1.69453993254E+00  1.78142085274E+00
  1.87275625296E+00  1.96877451930E+00  2.06971574742E+00  2.17583234298E+00
  2.28738965273E+00  2.40466662806E+00  2.52795652250E+00  2.65756762500E+00
  2.79382403083E+00  2.93706645197E+00  3.08765306910E+00  3.24596042718E+00
  3.41238437707E+00  3.58734106534E+00  3.77126797484E+00  3.96462501863E+00
  4.16789569006E+00  4.38158827167E+00  4.60623710622E+00  4.84240393283E+00
  5.09067929156E+00  5.35168400014E+00  5.62607070628E+00  5.91452551968E+00
  6.21776972762E+00  6.53656159857E+00  6.87169827826E+00  7.22401778295E+00
  7.59440109492E+00  7.98377436538E+00  8.39311123031E+00  8.82343524509E+00
  9.27582244391E+00  9.75140403040E+00  1.02513692062E+01  1.07769681448E+01
  1.13295151172E+01  1.19103917787E+01  1.25210506234E+01  1.31630186167E+01
  1.38379010128E+01  1.45473853692E+01  1.52932457665E+01  1.60773472441E+01
  1.69016504641E+01  1.77682166140E+01  1.86792125604E+01  1.96369162679E+01
  2.06437224944E+01  2.17021487799E+01  2.28148417416E+01  2.39845836913E+01
  2.52142995933E+01  2.65070643778E+01  2.78661106302E+01  2.92948366739E+01
  3.07968150683E+01  3.23758015418E+01  3.40357443829E+01  3.57807943134E+01
  3.76153148670E+01  3.95438933008E+01  4.15713520653E+01  4.37027608635E+01
  4.59434493276E+01  4.82990203459E+01  5.07753640730E+01  5.33786726579E+01
  5.61154557282E+01  5.89925566670E+01  6.20171697253E+01
  </PP_R>
  <PP_RAB>
  1.04832071220E-06  1.10206926446E-06  1.15857356393E-06  1.21797490079E-06
  1.28042180931E-06  1.34607043930E-06  1.41508494652E-06  1.48763790319E-06
  1.56391072950E-06  1.64409414724E-06  1.72838865671E-06  1.81700503811E-06
  1.91016487853E-06  2.00810112611E-06  2.11105867248E-06  2.21929496513E-06
  2.33308065118E-06  2.45270025410E-06  2.57845288521E-06  2.71065299158E-06
  2.84963114236E-06  2.99573485529E-06  3.14932946578E-06  3.31079904034E-06
  3.48054733702E-06  3.65899881497E-06  3.84659969585E-06  4.04381907958E-06
  4.25115011734E-06  4.46911124471E-06  4.69824747805E-06  4.93913177730E-06
  5.19236647867E-06  5.45858480082E-06  5.73845242822E-06  6.03266917571E-06
  6.34197073842E-06  6.66713053137E-06  7.00896162339E-06  7.36831877028E-06
  7.74610055208E-06  8.14325162003E-06  8.56076505865E-06  8.99968486903E-06
  9.46110857930E-06  9.94618998909E-06  1.04561420546E-05  1.09922399216E-05
  1.15558241140E-05  1.21483038859E-05  1.27711607452E-05  1.34259521586E-05
  1.41143154457E-05  1.48379718732E-05  1.55987309591E-05  1.63984949974E-05
  1.72392638149E-05  1.81231397714E-05  1.90523330172E-05  2.00291670196E-05
  2.10560843721E-05  2.21356529033E-05  2.32705720966E-05  2.44636798413E-05
  2.57179595282E-05  2.70365475098E-05  2.84227409428E-05  2.98800060329E-05
  3.14119867020E-05  3.30225136995E-05  3.47156141820E-05  3.64955217825E-05
  3.83666871971E-05  4.03337893140E-05  4.24017469131E-05  4.45757309656E-05
  4.68611775640E-05  4.92638015152E-05  5.17896106305E-05  5.44449207484E-05
  5.72363715273E-05  6.01709430481E-05  6.32559732681E-05  6.64991763699E-05
  6.99086620505E-05  7.34929558000E-05  7.72610202198E-05  8.12222774336E-05
  8.53866326478E-05  8.97644989195E-05  9.43668231947E-05  9.92051136815E-05
  1.04291468626E-04  1.09638606565E-04  1.15259898129E-04  1.21169399474E-04
  1.27381887432E-04  1.33912896460E-04  1.40778757480E-04  1.47996638722E-04
  1.55584588650E-04  1.63561581089E-04  1.71947562676E-04  1.80763502734E-04
  1.90031445704E-04  1.99774566271E-04  2.10017227312E-04  2.20785040814E-04
  2.32104931920E-04  2.44005206254E-04  2.56515620700E-04  2.69667457811E-04
  2.83493604029E-04  2.98028631924E-04  3.13308886634E-04  3.29372576756E-04
  3.46259869882E-04  3.64012993042E-04  3.82676338291E-04  4.02296573712E-04
  4.22922760114E-04  4.44606473708E-04  4.67401935071E-04  4.91366144730E-04
  5.16559025692E-04  5.43043573283E-04  5.70886012665E-04  6.00155964440E-04
  6.30926618733E-04  6.63274918209E-04  6.97281750464E-04  7.33032150293E-04
  7.70615512318E-04  8.10125814518E-04  8.51661853231E-04  8.95327490188E-04
  9.41231912226E-04  9.89489904310E-04  1.04022213656E-03  1.09355546597E-03
  1.14962325366E-03  1.20856569830E-03  1.27053018669E-03  1.33567166234E-03
  1.40415301287E-03  1.47614547732E-03  1.55182907435E-03  1.63139305238E-03
  1.71503636279E-03  1.80296815744E-03  1.89540831160E-03  1.99258797382E-03
  2.09475014386E-03  2.20215028037E-03  2.31505693963E-03  2.43375244710E-03
  2.55853360337E-03  2.68971242633E-03  2.82761693136E-03  2.97259195156E-03
  3.12500000000E-03  3.28522217618E-03  3.45365911899E-03  3.63073200853E-03
  3.81688361925E-03  4.01257942715E-03  4.21830877368E-03  4.43458608935E-03
  4.66195218013E-03  4.90097557966E-03  5.15225397094E-03  5.41641568084E-03
  5.69412125122E-03  5.98606509067E-03  6.29297721085E-03  6.61562505191E-03
  6.95481540154E-03  7.31139641227E-03  7.68625972237E-03  8.08034268536E-03
  8.49463071393E-03  8.93015974395E-03  9.38801882483E-03  9.86935284278E-03
  1.03753653836E-02  1.09073217421E-02  1.14665520863E-02  1.20544547834E-02
  1.26724998964E-02  1.33222328599E-02  1.40052783448E-02  1.47233443206E-02
  1.54782263262E-02  1.62718119599E-02  1.71060855991E-02  1.79831333625E-02
  1.89051483263E-02  1.98744360081E-02  2.08934201321E-02  2.19646486893E-02
  2.30908003092E-02  2.42746909572E-02  2.55192809768E-02  2.68276824912E-02
  2.82031671857E-02  2.96491744886E-02  3.11693201713E-02  3.27674053898E-02
  3.44474261895E-02  3.62135834976E-02  3.80702936272E-02  4.00221993208E-02
  4.20741813594E-02  4.42313707668E-02  4.64991616402E-02  4.88832246381E-02
  5.13895211597E-02  5.40243182518E-02  5.67942042795E-02  5.97061054007E-02
  6.27673028850E-02  6.59854513204E-02  6.93685977545E-02  7.29252018154E-02
  7.66641568660E-02  8.05948122412E-02  8.47269966271E-02  8.90710426368E-02
  9.36378126481E-02  9.84387259648E-02  1.03485787371E-01  1.08791617149E-01
  1.14369482636E-01  1.20233331403E-01  1.26397826125E-01  1.32878381250E-01
  1.39691201542E-01  1.46853322599E-01  1.54382653455E-01  1.62298021359E-01
  1.70619218854E-01  1.79367053267E-01  1.88563398742E-01  1.98231250932E-01
  2.08394784503E-01  2.19079413583E-01  2.30311855311E-01  2.42120196641E-01
  2.54533964578E-01  2.67584200007E-01  2.81303535314E-01  2.95726275984E-01
  3.10888486381E-01  3.26828079928E-01  3.43584913913E-01  3.61200889147E-01
  3.79720054746E-01  3.99188718269E-01  4.19655561515E-01  4.41171762255E-01
  4.63791122196E-01  4.87570201520E-01  5.12568460312E-01  5.38848407240E-01
  5.66475755860E-01  5.95519588933E-01  6.26052531171E-01  6.58150930833E-01
  6.91895050638E-01  7.27369268461E-01  7.64662288326E-01  8.03867362206E-01
  8.45082523207E-01  8.88410830700E-01  9.33960628022E-01  9.81845813393E-01
  1.03218612472E+00  1.08510743900E+00  1.14074208708E+00  1.19922918457E+00
  1.26071497966E+00  1.32535321889E+00  1.39330553151E+00  1.46474183370E+00
  1.53984075342E+00  1.61879007709E+00  1.70178721914E+00  1.78903971567E+00
  1.88076574335E+00  1.97719466504E+00  2.07856760326E+00  2.18513804317E+00
  2.29717246638E+00  2.41495101730E+00  2.53876820365E+00  2.66893363289E+00
  2.80577278641E+00  2.94962783335E+00  3.10085848627E+00
  </PP_RAB>
</PP_MESH>


<PP_LOCAL>
 -1.47568030000E+01 -1.47567980000E+01 -1.47567910000E+01 -1.47567900000E+01
 -1.47568010000E+01 -1.47568000000E+01 -1.47567960000E+01 -1.47567960000E+01
 -1.47567940000E+01 -1.47567890000E+01 -1.47567930000E+01 -1.47567970000E+01
 -1.47567930000E+01 -1.47567910000E+01 -1.47567900000E+01 -1.47567880000E+01
 -1.47567900000E+01 -1.47567880000E+01 -1.47567850000E+01 -1.47567840000E+01
 -1.47567840000E+01 -1.47567820000E+01 -1.47567790000E+01 -1.47567780000E+01
 -1.47567760000E+01 -1.47567720000E+01 -1.47567700000E+01 -1.47567670000E+01
 -1.47567630000E+01 -1.47567600000E+01 -1.47567550000E+01 -1.47567500000E+01
 -1.47567450000E+01 -1.47567390000E+01 -1.47567330000E+01 -1.47567260000E+01
 -1.47567180000E+01 -1.47567100000E+01 -1.47567010000E+01 -1.47566900000E+01
 -1.47566780000E+01 -1.47566660000E+01 -1.47566520000E+01 -1.47566360000E+01
 -1.47566190000E+01 -1.47566000000E+01 -1.47565790000E+01 -1.47565560000E+01
 -1.47565300000E+01 -1.47565010000E+01 -1.47564700000E+01 -1.47564350000E+01
 -1.47563970000E+01 -1.47563550000E+01 -1.47563080000E+01 -1.47562560000E+01
 -1.47561990000E+01 -1.47561360000E+01 -1.47560660000E+01 -1.47559890000E+01
 -1.47559040000E+01 -1.47558100000E+01 -1.47557060000E+01 -1.47555910000E+01
 -1.47554640000E+01 -1.47553240000E+01 -1.47551690000E+01 -1.47549970000E+01
 -1.47548080000E+01 -1.47545990000E+01 -1.47543680000E+01 -1.47541130000E+01
 -1.47538310000E+01 -1.47535200000E+01 -1.47531760000E+01 -1.47527960000E+01
 -1.47523770000E+01 -1.47519140000E+01 -1.47514020000E+01 -1.47508380000E+01
 -1.47502140000E+01 -1.47495260000E+01 -1.47487660000E+01 -1.47479280000E+01
 -1.47470030000E+01 -1.47459820000E+01 -1.47448570000E+01 -1.47436150000E+01
 -1.47422460000E+01 -1.47407360000E+01 -1.47390720000E+01 -1.47372390000E+01
 -1.47352200000E+01 -1.47329960000E+01 -1.47305490000E+01 -1.47278550000E+01
 -1.47248930000E+01 -1.47216360000E+01 -1.47180580000E+01 -1.47141270000E+01
 -1.47098130000E+01 -1.47050810000E+01 -1.46998930000E+01 -1.46942110000E+01
 -1.46879900000E+01 -1.46811870000E+01 -1.46737530000E+01 -1.46656370000E+01
 -1.46567850000E+01 -1.46471410000E+01 -1.46366430000E+01 -1.46252310000E+01
 -1.46128390000E+01 -1.45993980000E+01 -1.45848390000E+01 -1.45690890000E+01
 -1.45520720000E+01 -1.45337120000E+01 -1.45139300000E+01 -1.44926460000E+01
 -1.44697770000E+01 -1.44452400000E+01 -1.44189520000E+01 -1.43908280000E+01
 -1.43607830000E+01 -1.43287330000E+01 -1.42945940000E+01 -1.42582830000E+01
 -1.42197180000E+01 -1.41788230000E+01 -1.41355200000E+01 -1.40897410000E+01
 -1.40414170000E+01 -1.39904910000E+01 -1.39369090000E+01 -1.38806270000E+01
 -1.38216130000E+01 -1.37598430000E+01 -1.36953080000E+01 -1.36280120000E+01
 -1.35579760000E+01 -1.34852360000E+01 -1.34098470000E+01 -1.33318860000E+01
 -1.32514460000E+01 -1.31686450000E+01 -1.30836220000E+01 -1.29965370000E+01
 -1.29075760000E+01 -1.28169430000E+01 -1.27248660000E+01 -1.26315930000E+01
 -1.25373910000E+01 -1.24425410000E+01 -1.23473440000E+01 -1.22521070000E+01
 -1.21571500000E+01 -1.20627950000E+01 -1.19693680000E+01 -1.18771910000E+01
 -1.17865800000E+01 -1.16978430000E+01 -1.16112710000E+01 -1.15271410000E+01
 -1.14457060000E+01 -1.13671980000E+01 -1.12918210000E+01 -1.12197530000E+01
 -1.11511390000E+01 -1.10860940000E+01 -1.10247030000E+01 -1.09670170000E+01
 -1.09130530000E+01 -1.08628000000E+01 -1.08162110000E+01 -1.07732120000E+01
 -1.07336980000E+01 -1.06975360000E+01 -1.06645640000E+01 -1.06345960000E+01
 -1.06074240000E+01 -1.05828160000E+01 -1.05605240000E+01 -1.05402810000E+01
 -1.05218120000E+01 -1.05048300000E+01 -1.04890480000E+01 -1.04741780000E+01
 -1.04599400000E+01 -1.04460690000E+01 -1.04323150000E+01 -1.04184550000E+01
 -1.04042970000E+01 -1.03896850000E+01 -1.03745030000E+01 -1.03586800000E+01
 -1.03421950000E+01 -1.03250770000E+01 -1.03074020000E+01 -1.02892950000E+01
 -1.02709220000E+01 -1.02524790000E+01 -1.02341770000E+01 -1.02162180000E+01
 -1.01987680000E+01 -1.01819110000E+01 -1.01655990000E+01 -1.01495840000E+01
 -1.01333400000E+01 -1.01159710000E+01 -1.00961120000E+01 -1.00718450000E+01
 -1.00406290000E+01 -9.99930260000E+00 -9.94420060000E+00 -9.87147430000E+00
 -9.77790970000E+00 -9.66295690000E+00 -9.52766800000E+00 -9.36469480000E+00
 -9.15760710000E+00 -8.89471460000E+00 -8.57479850000E+00 -8.20845300000E+00
 -7.82015490000E+00 -7.44155250000E+00 -7.08008540000E+00 -6.73551740000E+00
 -6.40737790000E+00 -6.09505260000E+00 -5.79786670000E+00 -5.51513050000E+00
 -5.24616350000E+00 -4.99030610000E+00 -4.74692420000E+00 -4.51541170000E+00
 -4.29519070000E+00 -4.08571040000E+00 -3.88644720000E+00 -3.69690240000E+00
 -3.51660210000E+00 -3.34509530000E+00 -3.18195300000E+00 -3.02676730000E+00
 -2.87915010000E+00 -2.73873230000E+00 -2.60516270000E+00 -2.47810750000E+00
 -2.35724870000E+00 -2.24228440000E+00 -2.13292690000E+00 -2.02890280000E+00
 -1.92995200000E+00 -1.83582720000E+00 -1.74629280000E+00 -1.66112510000E+00
 -1.58011110000E+00 -1.50304820000E+00 -1.42974360000E+00 -1.36001420000E+00
 -1.29368550000E+00 -1.23059180000E+00 -1.17057510000E+00 -1.11348550000E+00
 -1.05918010000E+00 -1.00752330000E+00 -9.58385830000E-01 -9.11644860000E-01
 -8.67183380000E-01 -8.24890320000E-01 -7.84659950000E-01 -7.46391630000E-01
 -7.09989680000E-01 -6.75363080000E-01 -6.42425230000E-01 -6.11093780000E-01
 -5.81290390000E-01 -5.52940520000E-01 -5.25973290000E-01 -5.00321270000E-01
 -4.75920320000E-01 -4.52709410000E-01 -4.30630510000E-01 -4.09628410000E-01
 -3.89650600000E-01 -3.70647120000E-01 -3.52570440000E-01 -3.35375380000E-01
 -3.19018930000E-01 -3.03460190000E-01 -2.88660260000E-01 -2.74582140000E-01
 -2.61190610000E-01 -2.48452190000E-01 -2.36335040000E-01 -2.24808840000E-01
 -2.13844780000E-01 -2.03415450000E-01 -1.93494760000E-01
</PP_LOCAL>


<PP_NONLOCAL>
  <PP_BETA>
    1    0             Beta    L
   263
  6.48107617838E-05  6.81336832891E-05  7.16269652127E-05  7.52993592261E-05
  7.91600449116E-05  8.32186679668E-05  8.74853827054E-05  9.19708438575E-05
  9.66863006392E-05  1.01643510781E-04  1.06854879784E-04  1.12333453713E-04
  1.18092911090E-04  1.24147672515E-04  1.30512856188E-04  1.37204391907E-04
  1.44239012864E-04  1.51634303802E-04  1.59408769578E-04  1.67581830748E-04
  1.76173946536E-04  1.85206564278E-04  1.94702316912E-04  2.04684913303E-04
  2.15179345414E-04  2.26211834149E-04  2.37809957656E-04  2.50002736903E-04
  2.62820648646E-04  2.76295759982E-04  2.90461740788E-04  3.05354038470E-04
  3.21009867616E-04  3.37468390046E-04  3.54770773891E-04  3.72960271607E-04
  3.92082355327E-04  4.12184867093E-04  4.33318043176E-04  4.55534731362E-04
  4.78890480100E-04  5.03443753865E-04  5.29255879547E-04  5.56391397295E-04
  5.84918205479E-04  6.14907616325E-04  6.46434610551E-04  6.79578037280E-04
  7.14420742214E-04  7.51049826893E-04  7.89557000499E-04  8.30038439586E-04
  8.72595472213E-04  9.17334434721E-04  9.64367186575E-04  1.01381133865E-03
  1.06579058913E-03  1.12043483826E-03  1.17788072644E-03  1.23827201404E-03
  1.30175962887E-03  1.36850229351E-03  1.43866691162E-03  1.51242898456E-03
  1.58997291314E-03  1.67149258954E-03  1.75719194876E-03  1.84728493925E-03
  1.94199735872E-03  2.04156576186E-03  2.14623908318E-03  2.25627925814E-03
  2.37196115544E-03  2.49357432745E-03  2.62142270608E-03  2.75582587693E-03
  2.89712041780E-03  3.04565909523E-03  3.20181335755E-03  3.36597418009E-03
  3.53855145712E-03  3.71997726980E-03  3.91070492216E-03  4.11121176487E-03
  4.32199878752E-03  4.54359304268E-03  4.77654953897E-03  5.02144955345E-03
  5.27890628902E-03  5.54956304962E-03  5.83409702555E-03  6.13322003003E-03
  6.44767985779E-03  6.77826244959E-03  7.12579575118E-03  7.49114694934E-03
  7.87523178263E-03  8.27900937268E-03  8.70349106191E-03  9.14973649655E-03
  9.61886335939E-03  1.01120442210E-02  1.06305127686E-02  1.11755670363E-02
  1.17485671763E-02  1.23509500030E-02  1.29842207440E-02  1.36499639657E-02
  1.43498453198E-02  1.50856174895E-02  1.58591161442E-02  1.66722819797E-02
  1.75271483080E-02  1.84258533422E-02  1.93706477279E-02  2.03638966920E-02
  2.14080835497E-02  2.25058251599E-02  2.36598699981E-02  2.48731091113E-02
  2.61485786217E-02  2.74894734106E-02  2.88991564951E-02  3.03811586340E-02
  3.19391948217E-02  3.35771718636E-02  3.52991986512E-02  3.71095952264E-02
  3.90128994670E-02  4.10139002307E-02  4.31176119560E-02  4.53293339418E-02
  4.76546137925E-02  5.00993128548E-02  5.26695775836E-02  5.53718782863E-02
  5.82130393008E-02  6.12002195969E-02  6.43409661600E-02  6.76432166391E-02
  7.11153348353E-02  7.47661109697E-02  7.86048051345E-02  8.26411944755E-02
  8.68855290187E-02  9.13486423808E-02  9.60419476107E-02  1.00977449832E-01
  1.06167835927E-01  1.11626454828E-01  1.17367409967E-01  1.23405579894E-01
  1.29756658263E-01  1.36437190474E-01  1.43464737959E-01  1.50857765062E-01
  1.58635877254E-01  1.66819757635E-01  1.75431339731E-01  1.84493836386E-01
  1.94031844466E-01  2.04071512037E-01  2.14640532656E-01  2.25768392945E-01
  2.37486386690E-01  2.49827890628E-01  2.62828405128E-01  2.76525875814E-01
  2.90960742689E-01  3.06176231569E-01  3.22218699238E-01  3.39137735233E-01
  3.56986470062E-01  3.75822089695E-01  3.95705894586E-01  4.16703974876E-01
  4.38887428919E-01  4.62332882446E-01  4.87122837247E-01  5.13346293044E-01
  5.41099292943E-01  5.70485119111E-01  6.01615092157E-01  6.34608512075E-01
  6.69593431492E-01  7.06706126053E-01  7.46091368960E-01  7.87901348060E-01
  8.32294531193E-01  8.79433635671E-01  9.29481836535E-01  9.82597811221E-01
  1.03892880223E+00  1.09859944221E+00  1.16169743780E+00  1.22825368173E+00
  1.29821460503E+00  1.37140597311E+00  1.44748367804E+00  1.52587101923E+00
  1.60567730412E+00  1.68559492562E+00  1.76377466608E+00  1.83767770201E+00
  1.90391298345E+00  1.95807027933E+00  1.99458406211E+00  2.00667502043E+00
  1.98645612615E+00  1.92531918937E+00  1.81475776982E+00  1.64779426141E+00
  1.42111779347E+00  1.13788542390E+00  8.10778029091E-01  4.64352264997E-01
  1.35092016627E-01 -1.32844470749E-01 -2.97769378181E-01 -3.36277528173E-01
 -2.61264355169E-01 -1.35035952078E-01 -4.49895574756E-02 -6.22759691320E-03
  0.00000000000E+00  0.00000000000E+00  0.00000000000E+00  0.00000000000E+00
  0.00000000000E+00  0.00000000000E+00  0.00000000000E+00  0.00000000000E+00
  0.00000000000E+00  0.00000000000E+00  0.00000000000E+00  0.00000000000E+00
  0.00000000000E+00  0.00000000000E+00  0.00000000000E+00  0.00000000000E+00
  0.00000000000E+00  0.00000000000E+00  0.00000000000E+00  0.00000000000E+00
  0.00000000000E+00  0.00000000000E+00  0.00000000000E+00  0.00000000000E+00
  0.00000000000E+00  0.00000000000E+00  0.00000000000E+00  0.00000000000E+00
  0.00000000000E+00  0.00000000000E+00  0.00000000000E+00  0.00000000000E+00
  0.00000000000E+00  0.00000000000E+00  0.00000000000E+00  0.00000000000E+00
  0.00000000000E+00  0.00000000000E+00  0.00000000000E+00
  </PP_BETA>
  <PP_DIJ>
    1                  Number of nonzero Dij
    1    1  3.20249759297E+00
  </PP_DIJ>
</PP_NONLOCAL>


<PP_PSWFC>
3S    0  2.00          Wavefunction
  7.31182810000E-06  7.68671350000E-06  8.08081970000E-06  8.49513220000E-06
  8.93068700000E-06  9.38857320000E-06  9.86993580000E-06  1.03759780000E-05
  1.09079660000E-05  1.14672300000E-05  1.20551670000E-05  1.26732490000E-05
  1.33230200000E-05  1.40061060000E-05  1.47242150000E-05  1.54791420000E-05
  1.62727740000E-05  1.71070970000E-05  1.79841970000E-05  1.89062670000E-05
  1.98756120000E-05  2.08946570000E-05  2.19659490000E-05  2.30921670000E-05
  2.42761280000E-05  2.55207920000E-05  2.68292710000E-05  2.82048380000E-05
  2.96509310000E-05  3.11711670000E-05  3.27693470000E-05  3.44494680000E-05
  3.62157300000E-05  3.80725500000E-05  4.00245720000E-05  4.20766760000E-05
  4.42339940000E-05  4.65019200000E-05  4.88861240000E-05  5.13925700000E-05
  5.40275240000E-05  5.67975750000E-05  5.97096490000E-05  6.27710290000E-05
  6.59893690000E-05  6.93727170000E-05  7.29295330000E-05  7.66687110000E-05
  8.05996010000E-05  8.47320310000E-05  8.90763360000E-05  9.36433790000E-05
  9.84445780000E-05  1.03491940000E-04  1.08798090000E-04  1.14376290000E-04
  1.20240490000E-04  1.26405350000E-04  1.32886290000E-04  1.39699520000E-04
  1.46862070000E-04  1.54391850000E-04  1.62307690000E-04  1.70629390000E-04
  1.79377750000E-04  1.88574640000E-04  1.98243080000E-04  2.08407220000E-04
  2.19092490000E-04  2.30325610000E-04  2.42134660000E-04  2.54549180000E-04
  2.67600200000E-04  2.81320360000E-04  2.95743980000E-04  3.10907100000E-04
  3.26847670000E-04  3.43605520000E-04  3.61222570000E-04  3.79742860000E-04
  3.99212730000E-04  4.19680840000E-04  4.41198390000E-04  4.63819180000E-04
  4.87599770000E-04  5.12599640000E-04  5.38881300000E-04  5.66510470000E-04
  5.95556240000E-04  6.26091260000E-04  6.58191870000E-04  6.91938350000E-04
  7.27415100000E-04  7.64710840000E-04  8.03918840000E-04  8.45137140000E-04
  8.88468840000E-04  9.34022300000E-04  9.81911450000E-04  1.03225610000E-03
  1.08518210000E-03  1.14082180000E-03  1.19931450000E-03  1.26080640000E-03
  1.32545130000E-03  1.39341100000E-03  1.46485540000E-03  1.53996330000E-03
  1.61892260000E-03  1.70193090000E-03  1.78919570000E-03  1.88093550000E-03
  1.97737980000E-03  2.07877010000E-03  2.18536000000E-03  2.29741640000E-03
  2.41521970000E-03  2.53906490000E-03  2.66926210000E-03  2.80613730000E-03
  2.95003340000E-03  3.10131080000E-03  3.26034860000E-03  3.42754530000E-03
  3.60332010000E-03  3.78811360000E-03  3.98238930000E-03  4.18663470000E-03
  4.40136230000E-03  4.62711120000E-03  4.86444850000E-03  5.11397050000E-03
  5.37630470000E-03  5.65211090000E-03  5.94208350000E-03  6.24695280000E-03
  6.56748740000E-03  6.90449610000E-03  7.25883000000E-03  7.63138480000E-03
  8.02310350000E-03  8.43497870000E-03  8.86805570000E-03  9.32343530000E-03
  9.80227670000E-03  1.03058010000E-02  1.08352960000E-02  1.13921180000E-02
  1.19776960000E-02  1.25935390000E-02  1.32412380000E-02  1.39224720000E-02
  1.46390120000E-02  1.53927300000E-02  1.61856040000E-02  1.70197240000E-02
  1.78973020000E-02  1.88206780000E-02  1.97923300000E-02  2.08148850000E-02
  2.18911280000E-02  2.30240170000E-02  2.42166950000E-02  2.54725030000E-02
  2.67950000000E-02  2.81879800000E-02  2.96554910000E-02  3.12018600000E-02
  3.28317210000E-02  3.45500380000E-02  3.63621440000E-02  3.82737750000E-02
  4.02911140000E-02  4.24208360000E-02  4.46701680000E-02  4.70469460000E-02
  4.95596880000E-02  5.22176780000E-02  5.50310570000E-02  5.80109310000E-02
  6.11694980000E-02  6.45201870000E-02  6.80778270000E-02  7.18588360000E-02
  7.58814430000E-02  8.01659440000E-02  8.47349970000E-02  8.96139710000E-02
  9.48313370000E-02  1.00419130000E-01  1.06413500000E-01  1.12855280000E-01
  1.19790760000E-01  1.27272420000E-01  1.35359890000E-01  1.44121010000E-01
  1.53632890000E-01  1.63983250000E-01  1.75271710000E-01  1.87611160000E-01
  2.01129080000E-01  2.15968600000E-01  2.32289210000E-01  2.50266660000E-01
  2.70091630000E-01  2.91966380000E-01  3.16098640000E-01  3.42691210000E-01
  3.71926110000E-01  4.03941240000E-01  4.38798370000E-01  4.76441180000E-01
  5.16644440000E-01  5.58957660000E-01  6.02652030000E-01  6.46684690000E-01
  6.89701030000E-01  7.30097600000E-01  7.66161950000E-01  7.96284440000E-01
  8.19198240000E-01  8.34154100000E-01  8.40910590000E-01  8.39536380000E-01
  8.30264260000E-01  8.13510990000E-01  7.89853760000E-01  7.60001670000E-01
  7.24769190000E-01  6.85046970000E-01  6.41771870000E-01  5.95897500000E-01
  5.48366430000E-01  5.00084350000E-01  4.51898140000E-01  4.04577220000E-01
  3.58798980000E-01  3.15138420000E-01  2.74062030000E-01  2.35925640000E-01
  2.00976190000E-01  1.69356950000E-01  1.41115680000E-01  1.16215330000E-01
  9.45463750000E-02  7.59402750000E-02  6.01831030000E-02  4.70287200000E-02
  3.62108510000E-02  2.74537070000E-02  2.04811620000E-02  1.50247720000E-02
  1.08308660000E-02  7.66660820000E-03  5.32453510000E-03  3.62510000000E-03
  2.41718780000E-03  1.57695520000E-03  1.00551630000E-03  6.25946670000E-04
  3.79975500000E-04  2.24650660000E-04  1.29189650000E-04  7.21634990000E-05
  3.90971680000E-05  2.05134400000E-05  1.04061860000E-05  5.09421940000E-06
  2.40161620000E-06  1.08837690000E-06  4.73281100000E-07  1.97066730000E-07
  7.83902820000E-08  2.97178370000E-08  1.07088400000E-08  3.65862140000E-09
  1.17995610000E-09  3.56774230000E-10  0.00000000000E+00  0.00000000000E+00
  0.00000000000E+00  0.00000000000E+00  0.00000000000E+00  0.00000000000E+00
  0.00000000000E+00  0.00000000000E+00  0.00000000000E+00  0.00000000000E+00
  0.00000000000E+00  0.00000000000E+00  0.00000000000E+00  0.00000000000E+00
  0.00000000000E+00  0.00000000000E+00  0.00000000000E+00  0.00000000000E+00
  0.00000000000E+00  0.00000000000E+00  0.00000000000E+00
3P    1  4.00          Wavefunction
  3.25286020000E-10  3.59496650000E-10  3.97305240000E-10  4.39090200000E-10
  4.85269830000E-10  5.36306240000E-10  5.92710200000E-10  6.55046240000E-10
  7.23938230000E-10  8.00075670000E-10  8.84220570000E-10  9.77215100000E-10
  1.07999000000E-09  1.19357380000E-09  1.31910340000E-09  1.45783500000E-09