<PP_INFO>
Generated using Vanderbilt code, version   7  3  4                              
Author: Bernd Meyer   Generation date:   10    2 2003
Automatically converted from original format
    1        The Pseudo was generated with a Scalar-Relativistic Calculation
  1.70000000000E+00    Local Potential cutoff radius
nl pn  l   occ               Rcut            Rcut US             E pseu
3S  3  0  2.00     10.00000000000      1.70000000000     -1.26830366814
3P  3  1  4.00     10.00000000000      1.70000000000     -0.51514151413
</PP_INFO>


<PP_HEADER>
   0                   Version Number
   S                   Element
   US                  Ultrasoft pseudopotential
    F                  Nonlinear Core Correction
 SLA  PW   PBE  PBE    PBE  Exchange-Correlation functional
    6.00000000000      Z valence
  -20.17212041998      Total energy
 25.00000  100.0000000 Suggested cutoff for wfc and rho
    2                  Max angular momentum component
  811                  Number of points in mesh
    2    6             Number of Wavefunctions, Number of Projectors
 Wavefunctions         nl  l   occ
                       3S  0  2.00
                       3P  1  4.00
</PP_HEADER>


<PP_MESH>
  <PP_R>
  0.00000000000E+00  2.64817556750E-06  5.34161800049E-06  8.08110107287E-06
  1.08674117851E-05  1.37013505904E-05  1.65837316244E-05  1.95153829396E-05
  2.24971467425E-05  2.55298796362E-05  2.86144528662E-05  3.17517525708E-05
  3.49426800353E-05  3.81881519515E-05  4.14891006807E-05  4.48464745216E-05
  4.82612379827E-05  5.17343720595E-05  5.52668745161E-05  5.88597601723E-05
  6.25140611944E-05  6.62308273926E-05  7.00111265217E-05  7.38560445886E-05
  7.77666861639E-05  8.17441746991E-05  8.57896528498E-05  8.99042828036E-05
  9.40892466139E-05  9.83457465401E-05  1.02675005392E-04  1.07078266882E-04
  1.11556795982E-04  1.16111879287E-04  1.20744825383E-04  1.25456965228E-04
  1.30249652526E-04  1.35124264125E-04  1.40082200407E-04  1.45124885690E-04
  1.50253768640E-04  1.55470322686E-04  1.60776046443E-04  1.66172464144E-04
  1.71661126073E-04  1.77243609018E-04  1.82921516718E-04  1.88696480326E-04
  1.94570158878E-04  2.00544239766E-04  2.06620439230E-04  2.12800502844E-04
  2.19086206021E-04  2.25479354520E-04  2.31981784971E-04  2.38595365396E-04
  2.45321995748E-04  2.52163608458E-04  2.59122168989E-04  2.66199676401E-04
  2.73398163925E-04  2.80719699546E-04  2.88166386602E-04  2.95740364379E-04
  3.03443808736E-04  3.11278932724E-04  3.19247987221E-04  3.27353261583E-04
  3.35597084299E-04  3.43981823659E-04  3.52509888436E-04  3.61183728579E-04
  3.70005835913E-04  3.78978744861E-04  3.88105033164E-04  3.97387322628E-04
  4.06828279877E-04  4.16430617114E-04  4.26197092905E-04  4.36130512969E-04
  4.46233730986E-04  4.56509649415E-04  4.66961220328E-04  4.77591446260E-04
  4.88403381068E-04  4.99400130813E-04  5.10584854647E-04  5.21960765725E-04
  5.33531132127E-04  5.45299277795E-04  5.57268583490E-04  5.69442487760E-04
  5.81824487934E-04  5.94418141121E-04  6.07227065233E-04  6.20254940026E-04
  6.33505508157E-04  6.46982576258E-04  6.60690016029E-04  6.74631765352E-04
  6.88811829423E-04  7.03234281900E-04  7.17903266073E-04  7.32822996058E-04
  7.47997758006E-04  7.63431911331E-04  7.79129889966E-04  7.95096203639E-04
  8.11335439160E-04  8.27852261749E-04  8.44651416370E-04  8.61737729093E-04
  8.79116108487E-04  8.96791547022E-04  9.14769122512E-04  9.33053999564E-04
  9.51651431072E-04  9.70566759716E-04  9.89805419504E-04  1.00937293733E-03
  1.02927493457E-03  1.04951712867E-03  1.07010533483E-03  1.09104546765E-03
  1.11234354281E-03  1.13400567884E-03  1.15603809885E-03  1.17844713234E-03
  1.20123921697E-03  1.22442090049E-03  1.24799884253E-03  1.27197981659E-03
  1.29637071193E-03  1.32117853558E-03  1.34641041436E-03  1.37207359689E-03
  1.39817545572E-03  1.42472348939E-03  1.45172532464E-03  1.47918871859E-03
  1.50712156092E-03  1.53553187621E-03  1.56442782620E-03  1.59381771212E-03
  1.62370997712E-03  1.65411320867E-03  1.68503614104E-03  1.71648765778E-03
  1.74847679430E-03  1.78101274047E-03  1.81410484323E-03  1.84776260931E-03
  1.88199570792E-03  1.91681397357E-03  1.95222740889E-03  1.98824618745E-03
  2.02488065677E-03  2.06214134122E-03  2.10003894506E-03  2.13858435555E-03
  2.17778864604E-03  2.21766307916E-03  2.25821911006E-03  2.29946838972E-03
  2.34142276824E-03  2.38409429831E-03  2.42749523863E-03  2.47163805746E-03
  2.51653543616E-03  2.56220027290E-03  2.60864568629E-03  2.65588501921E-03
  2.70393184259E-03  2.75279995936E-03  2.80250340839E-03  2.85305646851E-03
  2.90447366264E-03  2.95676976195E-03  3.00995979009E-03  3.06405902753E-03
  3.11908301593E-03  3.17504756262E-03  3.23196874513E-03  3.28986291582E-03
  3.34874670655E-03  3.40863703351E-03  3.46955110203E-03  3.53150641153E-03
  3.59452076059E-03  3.65861225199E-03  3.72379929800E-03  3.79010062558E-03
  3.85753528183E-03  3.92612263941E-03  3.99588240215E-03  4.06683461067E-03
  4.13899964818E-03  4.21239824629E-03  4.28705149100E-03  4.36298082874E-03
  4.44020807254E-03  4.51875540829E-03  4.59864540112E-03  4.67990100189E-03
  4.76254555375E-03  4.84660279889E-03  4.93209688532E-03  5.01905237384E-03
  5.10749424508E-03  5.19744790668E-03  5.28893920058E-03  5.38199441047E-03
  5.47664026930E-03  5.57290396700E-03  5.67081315826E-03  5.77039597050E-03
  5.87168101194E-03  5.97469737981E-03  6.07947466872E-03  6.18604297915E-03
  6.29443292612E-03  6.40467564797E-03  6.51680281528E-03  6.63084664004E-03
  6.74683988482E-03  6.86481587224E-03  6.98480849451E-03  7.10685222320E-03
  7.23098211910E-03  7.35723384234E-03  7.48564366258E-03  7.61624846950E-03
  7.74908578331E-03  7.88419376562E-03  8.02161123032E-03  8.16137765480E-03
  8.30353319125E-03  8.44811867819E-03  8.59517565226E-03  8.74474636006E-03
  8.89687377036E-03  9.05160158644E-03  9.20897425859E-03  9.36903699693E-03
  9.53183578441E-03  9.69741738995E-03  9.86582938195E-03  1.00371201419E-02
  1.02113388784E-02  1.03885356410E-02  1.05687613350E-02  1.07520677356E-02
  1.09385075034E-02  1.11281341988E-02  1.13210022979E-02  1.15171672080E-02
  1.17166852835E-02  1.19196138420E-02  1.21260111811E-02  1.23359365946E-02
  1.25494503900E-02  1.27666139058E-02  1.29874895288E-02  1.32121407124E-02
  1.34406319944E-02  1.36730290160E-02  1.39093985403E-02  1.41498084718E-02
  1.43943278755E-02  1.46430269972E-02  1.48959772832E-02  1.51532514014E-02
  1.54149232616E-02  1.56810680371E-02  1.59517621860E-02  1.62270834737E-02
  1.65071109945E-02  1.67919251950E-02  1.70816078967E-02  1.73762423199E-02
  1.76759131074E-02  1.79807063488E-02  1.82907096053E-02  1.86060119348E-02
  1.89267039176E-02  1.92528776823E-02  1.95846269323E-02  1.99220469727E-02
  2.02652347378E-02  2.06142888187E-02  2.09693094921E-02  2.13303987483E-02
  2.16976603215E-02  2.20711997187E-02  2.24511242506E-02  2.28375430622E-02
  2.32305671640E-02  2.36303094643E-02  2.40368848014E-02  2.44504099765E-02
  2.48710037873E-02  2.52987870623E-02  2.57338826953E-02  2.61764156810E-02
  2.66265131505E-02  2.70843044080E-02  2.75499209682E-02  2.80234965937E-02
  2.85051673336E-02  2.89950715625E-02  2.94933500205E-02  3.00001458534E-02
  3.05156046537E-02  3.10398745028E-02  3.15731060134E-02  3.21154523724E-02
  3.26670693855E-02  3.32281155216E-02  3.37987519584E-02  3.43791426287E-02
  3.49694542675E-02  3.55698564599E-02  3.61805216899E-02  3.68016253897E-02
  3.74333459905E-02  3.80758649733E-02  3.87293669214E-02  3.93940395732E-02
  4.00700738764E-02  4.07576640426E-02  4.14570076030E-02  4.21683054656E-02
  4.28917619724E-02  4.36275849586E-02  4.43759858118E-02  4.51371795331E-02
  4.59113847987E-02  4.66988240229E-02  4.74997234216E-02  4.83143130778E-02
  4.91428270073E-02  4.99855032262E-02  5.08425838189E-02  5.17143150083E-02
  5.26009472257E-02  5.35027351835E-02  5.44199379479E-02  5.53528190135E-02
  5.63016463789E-02  5.72666926240E-02  5.82482349878E-02  5.92465554485E-02
  6.02619408041E-02  6.12946827554E-02  6.23450779890E-02  6.34134282631E-02
  6.45000404942E-02  6.56052268449E-02  6.67293048138E-02  6.78725973269E-02
  6.90354328298E-02  7.02181453828E-02  7.14210747563E-02  7.26445665286E-02
  7.38889721852E-02  7.51546492199E-02  7.64419612370E-02  7.77512780565E-02
  7.90829758197E-02  8.04374370976E-02  8.18150510008E-02  8.32162132910E-02
  8.46413264951E-02  8.60908000205E-02  8.75650502730E-02  8.90645007760E-02
  9.05895822927E-02  9.21407329495E-02  9.37183983620E-02  9.53230317629E-02
  9.69550941323E-02  9.86150543302E-02  1.00303389231E-01  1.02020583861E-01
  1.03767131536E-01  1.05543534006E-01  1.07350301598E-01  1.09187953360E-01
  1.11057017214E-01  1.12958030106E-01  1.14891538160E-01  1.16858096837E-01
  1.18858271089E-01  1.20892635529E-01  1.22961774589E-01  1.25066282694E-01
  1.27206764428E-01  1.29383834710E-01  1.31598118970E-01  1.33850253329E-01
  1.36140884782E-01  1.38470671383E-01  1.40840282435E-01  1.43250398680E-01
  1.45701712499E-01  1.48194928106E-01  1.50730761755E-01  1.53309941941E-01
  1.55933209612E-01  1.58601318384E-01  1.61315034751E-01  1.64075138312E-01
  1.66882421992E-01  1.69737692268E-01  1.72641769404E-01  1.75595487687E-01
  1.78599695661E-01  1.81655256378E-01  1.84763047640E-01  1.87923962257E-01
  1.91138908299E-01  1.94408809355E-01  1.97734604807E-01  2.01117250091E-01
  2.04557716975E-01  2.08056993839E-01  2.11616085957E-01  2.15236015787E-01
  2.18917823267E-01  2.22662566106E-01  2.26471320099E-01  2.30345179425E-01
  2.34285256970E-01  2.38292684641E-01  2.42368613697E-01  2.46514215070E-01
  2.50730679714E-01  2.55019218936E-01  2.59381064751E-01  2.63817470233E-01
  2.68329709875E-01  2.72919079956E-01  2.77586898914E-01  2.82334507722E-01
  2.87163270278E-01  2.92074573790E-01  2.97069829181E-01  3.02150471492E-01
  3.07317960292E-01  3.12573780102E-01  3.17919440816E-01  3.23356478139E-01
  3.28886454028E-01  3.34510957137E-01  3.40231603277E-01  3.46050035878E-01
  3.51967926465E-01  3.57986975133E-01  3.64108911037E-01  3.70335492891E-01
  3.76668509472E-01  3.83109780134E-01  3.89661155327E-01  3.96324517137E-01
  4.03101779817E-01  4.09994890344E-01  4.17005828976E-01  4.24136609819E-01
  4.31389281408E-01  4.38765927297E-01  4.46268666652E-01  4.53899654865E-01
  4.61661084172E-01  4.69555184281E-01  4.77584223014E-01  4.85750506959E-01
  4.94056382131E-01  5.02504234648E-01  5.11096491413E-01  5.19835620816E-01
  5.28724133440E-01  5.37764582782E-01  5.46959565989E-01  5.56311724601E-01
  5.65823745312E-01  5.75498360742E-01  5.85338350221E-01  5.95346540588E-01
  6.05525807001E-01  6.15879073767E-01  6.26409315180E-01  6.37119556373E-01
  6.48012874192E-01  6.59092398076E-01  6.70361310959E-01  6.81822850180E-01
  6.93480308418E-01  7.05337034636E-01  7.17396435040E-01  7.29661974065E-01
  7.42137175361E-01  7.54825622812E-01  7.67730961565E-01  7.80856899073E-01
  7.94207206164E-01  8.07785718122E-01  8.21596335792E-01  8.35643026697E-01
  8.49929826179E-01  8.64460838560E-01  8.79240238317E-01  8.94272271287E-01
  9.09561255882E-01  9.25111584331E-01  9.40927723942E-01  9.57014218387E-01
  9.73375689004E-01  9.90016836127E-01  1.00694244044E+00  1.02415736433E+00
  1.04166655332E+00  1.05947503746E+00  1.07758793278E+00  1.09601044277E+00
  1.11474785986E+00  1.13380556694E+00  1.15318903893E+00  1.17290384432E+00
  1.19295564679E+00  1.21335020685E+00  1.23409338344E+00  1.25519113569E+00
  1.27664952457E+00  1.29847471466E+00  1.32067297591E+00  1.34325068546E+00
  1.36621432944E+00  1.38957050487E+00  1.41332592153E+00  1.43748740387E+00
  1.46206189304E+00  1.48705644880E+00  1.51247825162E+00  1.53833460467E+00
  1.56463293599E+00  1.59138080058E+00  1.61858588259E+00  1.64625599751E+00
  1.67439909443E+00  1.70302325831E+00  1.73213671232E+00  1.76174782020E+00
  1.79186508864E+00  1.82249716976E+00  1.85365286355E+00  1.88534112044E+00
  1.91757104387E+00  1.95035189285E+00  1.98369308469E+00  2.01760419768E+00
  2.05209497382E+00  2.08717532164E+00  2.12285531905E+00  2.15914521622E+00
  2.19605543854E+00  2.23359658959E+00  2.27177945423E+00  2.31061500165E+00
  2.35011438855E+00  2.39028896234E+00  2.43115026441E+00  2.47271003341E+00
  2.51498020866E+00  2.55797293356E+00  2.60170055910E+00  2.64617564736E+00
  2.69141097519E+00  2.73741953782E+00  2.78421455261E+00  2.83180946288E+00
  2.88021794171E+00  2.92945389592E+00  2.97953147007E+00  3.03046505045E+00
  3.08226926930E+00  3.13495900898E+00  3.18854940622E+00  3.24305585651E+00
  3.29849401850E+00  3.35487981850E+00  3.41222945506E+00  3.47055940362E+00
  3.52988642124E+00  3.59022755143E+00  3.65160012902E+00  3.71402178518E+00
  3.77751045244E+00  3.84208436985E+00  3.90776208826E+00  3.97456247561E+00
  4.04250472236E+00  4.11160834699E+00  4.18189320164E+00  4.25337947779E+00
  4.32608771206E+00  4.40003879213E+00  4.47525396270E+00  4.55175483164E+00
  4.62956337618E+00  4.70870194919E+00  4.78919328565E+00  4.87106050918E+00
  4.95432713865E+00  5.03901709493E+00  5.12515470782E+00  5.21276472299E+00
  5.30187230910E+00  5.39250306504E+00  5.48468302726E+00  5.57843867729E+00
  5.67379694931E+00  5.77078523791E+00  5.86943140594E+00  5.96976379254E+00
  6.07181122126E+00  6.17560300837E+00  6.28116897121E+00  6.38853943687E+00
  6.49774525078E+00  6.60881778568E+00  6.72178895055E+00  6.83669119981E+00
  6.95355754267E+00  7.07242155256E+00  7.19331737681E+00  7.31627974645E+00
  7.44134398619E+00  7.56854602457E+00  7.69792240427E+00  7.82951029262E+00
  7.96334749228E+00  8.09947245208E+00  8.23792427809E+00  8.37874274484E+00
  8.52196830675E+00  8.66764210975E+00  8.81580600312E+00  8.96650255146E+00
  9.11977504698E+00  9.27566752190E+00  9.43422476112E+00  9.59549231505E+00
  9.75951651275E+00  9.92634447520E+00  1.00960241288E+01  1.02686042193E+01
  1.04441343256E+01  1.06226648741E+01  1.08042471532E+01  1.09889333279E+01
  1.11767764550E+01  1.13678304982E+01  1.15621503437E+01  1.17597918157E+01
  1.19608116928E+01  1.21652677242E+01  1.23732186461E+01  1.25847241988E+01
  1.27998451438E+01  1.30186432810E+01  1.32411814671E+01  1.34675236329E+01
  1.36977348021E+01  1.39318811100E+01  1.41700298222E+01  1.44122493543E+01
  1.46586092913E+01  1.49091804075E+01  1.51640346873E+01  1.54232453454E+01
  1.56868868478E+01  1.59550349338E+01  1.62277666371E+01  1.65051603083E+01
  1.67872956371E+01  1.70742536756E+01  1.73661168613E+01  1.76629690408E+01
  1.79648954941E+01  1.82719829587E+01  1.85843196549E+01  1.89019953111E+01
  1.92251011892E+01  1.95537301114E+01  1.98879764864E+01  2.02279363366E+01
  2.05737073261E+01  2.09253887881E+01  2.12830817538E+01  2.16468889816E+01
  2.20169149863E+01  2.23932660690E+01  2.27760503483E+01  2.31653777906E+01
  2.35613602422E+01  2.39641114612E+01  2.43737471501E+01  2.47903849895E+01
  2.52141446713E+01  2.56451479334E+01  2.60835185948E+01  2.65293825908E+01
  2.69828680096E+01  2.74441051288E+01  2.79132264528E+01  2.83903667511E+01
  2.88756630969E+01  2.93692549064E+01  2.98712839791E+01  3.03818945381E+01
  3.09012332720E+01  3.14294493768E+01  3.19666945987E+01  3.25131232779E+01
  3.30688923928E+01  3.36341616050E+01  3.42090933055E+01  3.47938526611E+01
  3.53886076617E+01  3.59935291691E+01  3.66087909653E+01  3.72345698033E+01
  3.78710454572E+01  3.85184007742E+01  3.91768217268E+01  3.98464974667E+01
  4.05276203787E+01  4.12203861364E+01  4.19249937578E+01  4.26416456632E+01
  4.33705477327E+01  4.41119093659E+01  4.48659435415E+01  4.56328668790E+01
  4.64128997006E+01  4.72062660947E+01  4.80131939800E+01  4.88339151714E+01
  4.96686654462E+01  5.05176846119E+01  5.13812165753E+01  5.22595094126E+01
  5.31528154401E+01  5.40613912874E+01  5.49854979708E+01  5.59254009683E+01
  5.68813702958E+01  5.78536805847E+01  5.88426111611E+01  5.98484461256E+01
  6.08714744350E+01  6.19119899855E+01  6.29702916973E+01  6.40466835998E+01
  6.51414749197E+01  6.62549801693E+01  6.73875192372E+01  6.85394174798E+01
  6.97110058152E+01  7.09026208182E+01  7.21146048166E+01  7.33473059900E+01
  7.46010784696E+01  7.58762824399E+01  7.71732842424E+01  7.84924564806E+01
  7.98341781272E+01  8.11988346328E+01  8.25868180368E+01  8.39985270801E+01
  8.54343673192E+01  8.68947512433E+01  8.83800983925E+01  8.98908354782E+01
  9.14273965060E+01  9.29902229002E+01  9.45797636304E+01  9.61964753411E+01
  9.78408224821E+01  9.95132774426E+01  1.01214320687E+02  1.02944440891E+02
  1.04704135085E+02  1.06493908796E+02  1.08314276191E+02  1.10165760226E+02
  1.12048892796E+02  1.13964214890E+02  1.15912276741E+02  1.17893637992E+02
  1.19908867848E+02  1.21958545245E+02  1.24043259017E+02  1.26163608062E+02
  1.28320201514E+02  1.30513658922E+02  1.32744610423E+02  1.35013696926E+02
  1.37321570296E+02  1.39668893541E+02  1.42056341000E+02
  </PP_R>
  <PP_RAB>
  2.62579679732E-06  2.67068112897E-06  2.71633269563E-06  2.76276461211E-06
  2.80999021740E-06  2.85802307851E-06  2.90687699434E-06  2.95656599968E-06
  3.00710436922E-06  3.05850662166E-06  3.11078752386E-06  3.16396209513E-06
  3.21804561147E-06  3.27305361005E-06  3.32900189360E-06  3.38590653497E-06
  3.44378388177E-06  3.50265056104E-06  3.56252348403E-06  3.62341985108E-06
  3.68535715654E-06  3.74835319380E-06  3.81242606040E-06  3.87759416322E-06
  3.94387622382E-06  4.01129128374E-06  4.07985871002E-06  4.14959820077E-06
  4.22052979077E-06  4.29267385732E-06  4.36605112599E-06  4.44068267667E-06
  4.51658994955E-06  4.59379475133E-06  4.67231926144E-06  4.75218603846E-06
  4.83341802657E-06  4.91603856215E-06  5.00007138048E-06  5.08554062257E-06
  5.17247084206E-06  5.26088701233E-06  5.35081453364E-06  5.44227924043E-06
  5.53530740872E-06  5.62992576373E-06  5.72616148746E-06  5.82404222658E-06
  5.92359610033E-06  6.02485170861E-06  6.12783814020E-06  6.23258498112E-06
  6.33912232309E-06  6.44748077224E-06  6.55769145785E-06  6.66978604132E-06
  6.78379672525E-06  6.89975626271E-06  7.01769796663E-06  7.13765571937E-06
  7.25966398248E-06  7.38375780658E-06  7.50997284141E-06  7.63834534611E-06
  7.76891219963E-06  7.90171091128E-06  8.03677963157E-06  8.17415716314E-06
  8.31388297188E-06  8.45599719831E-06  8.60054066911E-06  8.74755490882E-06
  8.89708215178E-06  9.04916535428E-06  9.20384820687E-06  9.36117514695E-06
  9.52119137151E-06  9.68394285010E-06  9.84947633808E-06  1.00178393900E-05
  1.01890803734E-05  1.03632484823E-05  1.05403937520E-05  1.07205670729E-05
  1.09038202053E-05  1.10902057941E-05  1.12797773845E-05  1.14725894367E-05
  1.16686973418E-05  1.18681574379E-05  1.20710270260E-05  1.22773643865E-05
  1.24872287962E-05  1.27006805451E-05  1.29177809538E-05  1.31385923910E-05
  1.33631782915E-05  1.35916031746E-05  1.38239326622E-05  1.40602334982E-05
  1.43005735672E-05  1.45450219143E-05  1.47936487647E-05  1.50465255441E-05
  1.53037248991E-05  1.55653207182E-05  1.58313881527E-05  1.61020036386E-05
  1.63772449187E-05  1.66571910643E-05  1.69419224985E-05  1.72315210192E-05
  1.75260698225E-05  1.78256535265E-05  1.81303581958E-05  1.84402713662E-05
  1.87554820697E-05  1.90760808603E-05  1.94021598398E-05  1.97338126843E-05
  2.00711346714E-05  2.04142227070E-05  2.07631753538E-05  2.11180928591E-05
  2.14790771839E-05  2.18462320318E-05  2.22196628795E-05  2.25994770064E-05
  2.29857835257E-05  2.33786934158E-05  2.37783195521E-05  2.41847767395E-05
  2.45981817453E-05  2.50186533326E-05  2.54463122950E-05  2.58812814904E-05
  2.63236858773E-05  2.67736525496E-05  2.72313107743E-05  2.76967920276E-05
  2.81702300333E-05  2.86517608010E-05  2.91415226651E-05  2.96396563247E-05
  3.01463048841E-05  3.06616138935E-05  3.11857313912E-05  3.17188079461E-05
  3.22609967008E-05  3.28124534155E-05  3.33733365131E-05  3.39438071245E-05
  3.45240291349E-05  3.51141692307E-05  3.57143969479E-05  3.63248847203E-05
  3.69458079291E-05  3.75773449535E-05  3.82196772221E-05  3.88729892643E-05
  3.95374687641E-05  4.02133066136E-05  4.09006969679E-05  4.15998373010E-05
  4.23109284623E-05  4.30341747347E-05  4.37697838927E-05  4.45179672627E-05
  4.52789397831E-05  4.60529200668E-05  4.68401304633E-05  4.76407971228E-05
  4.84551500615E-05  4.92834232271E-05  5.01258545666E-05  5.09826860941E-05
  5.18541639607E-05  5.27405385253E-05  5.36420644260E-05  5.45590006537E-05
  5.54916106266E-05  5.64401622654E-05  5.74049280707E-05  5.83861852010E-05
  5.93842155524E-05  6.03993058399E-05  6.14317476791E-05  6.24818376707E-05
  6.35498774852E-05  6.46361739498E-05  6.57410391363E-05  6.68647904513E-05
  6.80077507266E-05  6.91702483127E-05  7.03526171727E-05  7.15551969782E-05
  7.27783332071E-05  7.40223772429E-05  7.52876864752E-05  7.65746244030E-05
  7.78835607386E-05  7.92148715141E-05  8.05689391892E-05  8.19461527616E-05
  8.33469078779E-05  8.47716069480E-05  8.62206592604E-05  8.76944810997E-05
  8.91934958665E-05  9.07181341987E-05  9.22688340953E-05  9.38460410426E-05
  9.54502081414E-05  9.70817962379E-05  9.87412740560E-05  1.00429118331E-04
  1.02145813949E-04  1.03891854082E-04  1.05667740335E-04  1.07473982885E-04
  1.09311100630E-04  1.11179621339E-04  1.13080081802E-04  1.15013027984E-04
  1.16979015184E-04  1.18978608191E-04  1.21012381450E-04  1.23080919224E-04
  1.25184815765E-04  1.27324675481E-04  1.29501113112E-04  1.31714753907E-04
  1.33966233803E-04  1.36256199604E-04  1.38585309176E-04  1.40954231624E-04
  1.43363647496E-04  1.45814248970E-04  1.48306740056E-04  1.50841836798E-04
  1.53420267481E-04  1.56042772839E-04  1.58710106265E-04  1.61423034033E-04
  1.64182335516E-04  1.66988803407E-04  1.69843243949E-04  1.72746477169E-04
  1.75699337109E-04  1.78702672068E-04  1.81757344847E-04  1.84864232995E-04
  1.88024229059E-04  1.91238240845E-04  1.94507191678E-04  1.97832020663E-04
  2.01213682959E-04  2.04653150052E-04  2.08151410036E-04  2.11709467891E-04
  2.15328345780E-04  2.19009083336E-04  2.22752737964E-04  2.26560385143E-04
  2.30433118736E-04  2.34372051305E-04  2.38378314429E-04  2.42453059031E-04
  2.46597455704E-04  2.50812695054E-04  2.55099988039E-04  2.59460566313E-04
  2.63895682588E-04  2.68406610985E-04  2.72994647408E-04  2.77661109910E-04
  2.82407339077E-04  2.87234698407E-04  2.92144574707E-04  2.97138378491E-04
  3.02217544381E-04  3.07383531523E-04  3.12637824006E-04  3.17981931286E-04
  3.23417388621E-04  3.28945757514E-04  3.34568626158E-04  3.40287609893E-04
  3.46104351674E-04  3.52020522538E-04  3.58037822087E-04  3.64157978973E-04
  3.70382751399E-04  3.76713927623E-04  3.83153326469E-04  3.89702797851E-04
  3.96364223306E-04  4.03139516532E-04  4.10030623940E-04  4.17039525212E-04
  4.24168233870E-04  4.31418797853E-04  4.38793300108E-04  4.46293859187E-04
  4.53922629856E-04  4.61681803713E-04  4.69573609818E-04  4.77600315335E-04
  4.85764226180E-04  4.94067687688E-04  5.02513085281E-04  5.11102845160E-04
  5.19839434996E-04  5.28725364642E-04  5.37763186854E-04  5.46955498024E-04
  5.56304938924E-04  5.65814195468E-04  5.75485999482E-04  5.85323129487E-04
  5.95328411501E-04  6.05504719847E-04  6.15854977982E-04  6.26382159335E-04
  6.37089288162E-04  6.47979440412E-04  6.59055744617E-04  6.70321382784E-04
  6.81779591313E-04  6.93433661926E-04  7.05286942611E-04  7.17342838587E-04
  7.29604813279E-04  7.42076389316E-04  7.54761149539E-04  7.67662738036E-04
  7.80784861182E-04  7.94131288710E-04  8.07705854790E-04  8.21512459133E-04
  8.35555068108E-04  8.49837715885E-04  8.64364505593E-04  8.79139610497E-04
  8.94167275199E-04  9.09451816857E-04  9.24997626423E-04  9.40809169907E-04
  9.56890989661E-04  9.73247705679E-04  9.89884016930E-04  1.00680470270E-03
  1.02401462399E-03  1.04151872485E-03  1.05932203390E-03  1.07742966566E-03
  1.09584682212E-03  1.11457879417E-03  1.13363096313E-03  1.15300880234E-03
  1.17271787866E-03  1.19276385413E-03  1.21315248758E-03  1.23388963627E-03
  1.25498125756E-03  1.27643341069E-03  1.29825225844E-03  1.32044406894E-03
  1.34301521747E-03  1.36597218828E-03  1.38932157647E-03  1.41307008987E-03
  1.43722455095E-03  1.46179189884E-03  1.48677919125E-03  1.51219360656E-03
  1.53804244583E-03  1.56433313492E-03  1.59107322666E-03  1.61827040295E-03
  1.64593247701E-03  1.67406739561E-03  1.70268324139E-03  1.73178823512E-03
  1.76139073809E-03  1.79149925453E-03  1.82212243405E-03  1.85326907408E-03
  1.88494812246E-03  1.91716867995E-03  1.94994000291E-03  1.98327150589E-03
  2.01717276441E-03  2.05165351762E-03  2.08672367119E-03  2.12239330009E-03
  2.15867265151E-03  2.19557214782E-03  2.23310238951E-03  2.27127415831E-03
  2.31009842023E-03  2.34958632872E-03  2.38974922789E-03  2.43059865578E-03
  2.47214634762E-03  2.51440423927E-03  2.55738447061E-03  2.60109938901E-03
  2.64556155294E-03  2.69078373550E-03  2.73677892817E-03  2.78356034446E-03
  2.83114142377E-03  2.87953583523E-03  2.92875748162E-03  2.97882050335E-03
  3.02973928257E-03  3.08152844726E-03  3.13420287545E-03  3.18777769947E-03
  3.24226831033E-03  3.29769036214E-03  3.35405977658E-03  3.41139274749E-03
  3.46970574553E-03  3.52901552288E-03  3.58933911810E-03  3.65069386099E-03
  3.71309737759E-03  3.77656759521E-03  3.84112274762E-03  3.90678138027E-03
  3.97356235561E-03  4.04148485852E-03  4.11056840182E-03  4.18083283189E-03
  4.25229833432E-03  4.32498543978E-03  4.39891502987E-03  4.47410834312E-03
  4.55058698112E-03  4.62837291470E-03  4.70748849025E-03  4.78795643616E-03
  4.86979986930E-03  4.95304230171E-03  5.03770764732E-03  5.12382022886E-03
  5.21140478480E-03  5.30048647649E-03  5.39109089537E-03  5.48324407035E-03
  5.57697247524E-03  5.67230303641E-03  5.76926314047E-03  5.86788064219E-03
  5.96818387248E-03  6.07020164650E-03  6.17396327199E-03  6.27949855766E-03
  6.38683782175E-03  6.49601190076E-03  6.60705215828E-03  6.71999049403E-03
  6.83485935302E-03  6.95169173483E-03  7.07052120317E-03  7.19138189542E-03
  7.31430853253E-03  7.43933642895E-03  7.56650150276E-03  7.69584028604E-03
  7.82738993531E-03  7.96118824224E-03  8.09727364450E-03  8.23568523679E-03
  8.37646278208E-03  8.51964672303E-03  8.66527819363E-03  8.81339903097E-03
  8.96405178730E-03  9.11727974225E-03  9.27312691525E-03  9.43163807816E-03
  9.59285876819E-03  9.75683530090E-03  9.92361478360E-03  1.00932451288E-02
  1.02657750680E-02  1.04412541657E-02  1.06197328337E-02  1.08012623455E-02
  1.09858948509E-02  1.11736833913E-02  1.13646819147E-02  1.15589452914E-02
  1.17565293293E-02  1.19574907906E-02  1.21618874076E-02  1.23697778996E-02
  1.25812219894E-02  1.27962804207E-02  1.30150149759E-02  1.32374884929E-02
  1.34637648843E-02  1.36939091548E-02  1.39279874204E-02  1.41660669273E-02
  1.44082160710E-02  1.46545044165E-02  1.49050027174E-02  1.51597829373E-02
  1.54189182694E-02  1.56824831583E-02  1.59505533212E-02  1.62232057695E-02
  1.65005188308E-02  1.67825721718E-02  1.70694468211E-02  1.73612251922E-02
  1.76579911073E-02  1.79598298215E-02  1.82668280473E-02  1.85790739794E-02
  1.88966573198E-02  1.92196693043E-02  1.95482027278E-02  1.98823519717E-02
  2.02222130306E-02  2.05678835400E-02  2.09194628043E-02  2.12770518254E-02
  2.16407533318E-02  2.20106718079E-02  2.23869135241E-02  2.27695865673E-02
  2.31588008721E-02  2.35546682523E-02  2.39573024328E-02  2.43668190828E-02
  2.47833358483E-02  2.52069723867E-02  2.56378504005E-02  2.60760936725E-02
  2.65218281017E-02  2.69751817389E-02  2.74362848238E-02  2.79052698224E-02
  2.83822714650E-02  2.88674267851E-02  2.93608751582E-02  2.98627583426E-02
  3.03732205196E-02  3.08924083351E-02  3.14204709417E-02  3.19575600416E-02
  3.25038299301E-02  3.30594375400E-02  3.36245424865E-02  3.41993071135E-02
  3.47838965396E-02  3.53784787060E-02  3.59832244248E-02  3.65983074277E-02
  3.72239044161E-02  3.78601951119E-02  3.85073623091E-02  3.91655919264E-02
  3.98350730603E-02  4.05159980399E-02  4.12085624817E-02  4.19129653461E-02
  4.26294089944E-02  4.33580992470E-02  4.40992454425E-02  4.48530604978E-02
  4.56197609695E-02  4.63995671157E-02  4.71927029597E-02  4.79993963540E-02
  4.88198790461E-02  4.96543867447E-02  5.05031591877E-02  5.13664402112E-02
  5.22444778189E-02  5.31375242541E-02  5.40458360718E-02  5.49696742123E-02
  5.59093040765E-02  5.68649956019E-02  5.78370233402E-02  5.88256665361E-02
  5.98312092076E-02  6.08539402278E-02  6.18941534074E-02  6.29521475795E-02
  6.40282266855E-02  6.51226998621E-02  6.62358815301E-02  6.73680914852E-02
  6.85196549893E-02  6.96909028644E-02  7.08821715872E-02  7.20938033864E-02
  7.33261463402E-02  7.45795544769E-02  7.58543878765E-02  7.71510127738E-02
  7.84698016642E-02  7.98111334101E-02  8.11753933503E-02  8.25629734101E-02
  8.39742722145E-02  8.54096952024E-02  8.68696547430E-02  8.83545702543E-02
  8.98648683240E-02  9.14009828314E-02  9.29633550724E-02  9.45524338865E-02
  9.61686757851E-02  9.78125450833E-02  9.94845140330E-02  1.01185062958E-01
  1.02914680395E-01  1.04673863227E-01  1.06463116834E-01  1.08282955235E-01
  1.10133901234E-01  1.12016486571E-01  1.13931252077E-01  1.15878747828E-01
  1.17859533300E-01  1.19874177535E-01  1.21923259302E-01  1.24007367262E-01
  1.26127100139E-01  1.28283066891E-01  1.30475886886E-01  1.32706190078E-01
  1.34974617191E-01  1.37281819900E-01  1.39628461019E-01  1.42015214692E-01
  1.44442766589E-01  1.46911814098E-01  1.49423066528E-01  1.51977245313E-01
  1.54575084220E-01  1.57217329558E-01  1.59904740392E-01  1.62638088764E-01
  1.65418159911E-01  1.68245752495E-01  1.71121678828E-01  1.74046765108E-01
  1.77021851655E-01  1.80047793155E-01  1.83125458902E-01  1.86255733050E-01
  1.89439514865E-01  1.92677718987E-01  1.95971275690E-01  1.99321131148E-01
  2.02728247709E-01  2.06193604174E-01  2.09718196070E-01  2.13303035947E-01
  2.16949153657E-01  2.20657596662E-01  2.24429430324E-01  2.28265738219E-01
  2.32167622443E-01  2.36136203932E-01  2.40172622784E-01  2.44278038582E-01
  2.48453630734E-01  2.52700598806E-01  2.57020162870E-01  2.61413563854E-01