<PP_INFO>
Generated using ld1 code (trou)
Author: P. Giannozzi  Generation date: 2002-04-17
Info: Sulfur PW91 3S2 3p4 sp; 3s1.50 3P3.50 3D0 d; l=1 local, nlcc0.5, MT
    0        The Pseudo was generated with a Non-Relativistic Calculation
  0.00000000000E+00    Local Potential cutoff radius
nl pn  l   occ               Rcut            Rcut US             E pseu
3S  0  0  2.00      1.34000000000      0.00000000000      0.00000000000
3P  0  1  4.00      1.42000000000      0.00000000000      0.00000000000
3D  0  2  0.00      1.83000000000      0.00000000000      0.00000000000
</PP_INFO>


<PP_HEADER>
   0                   Version Number
   S                   Element
   NC                  Norm - Conserving pseudopotential
    T                  Nonlinear Core Correction
 SLA  PW   GGX  GGC    PW91 Exchange-Correlation functional
    6.00000000000      Z valence
    0.00000000000      Total energy
  0.0000000  0.0000000 Suggested cutoff for wfc and rho
    2                  Max angular momentum component
  175                  Number of points in mesh
    3    2             Number of Wavefunctions, Number of Projectors
 Wavefunctions         nl  l   occ
                       3S  0  2.00
                       3P  1  4.00
                       3D  2  0.00
</PP_HEADER>


<PP_MESH>
  <PP_R>
  1.14472743055E-03  1.21855600679E-03  1.29714611711E-03  1.38080485407E-03
  1.46985911600E-03  1.56465688437E-03  1.66556858352E-03  1.77298852811E-03
  1.88733646389E-03  2.00905920793E-03  2.13863239448E-03  2.27656233359E-03
  2.42338798948E-03  2.57968308661E-03  2.74605835146E-03  2.92316389900E-03
  3.11169177299E-03  3.31237865021E-03  3.52600871899E-03  3.75341674346E-03
  3.99549132542E-03  4.25317837656E-03  4.52748481464E-03  4.81948249802E-03
  5.13031241399E-03  5.46118913721E-03  5.81340557567E-03  6.18833802274E-03
  6.58745153512E-03  7.01230565752E-03  7.46456051667E-03  7.94598330825E-03
  8.45845520229E-03  9.00397869384E-03  9.58468542781E-03  1.02028445284E-02
  1.08608714657E-02  1.15613374942E-02  1.23069797003E-02  1.31007116969E-02
  1.39456350093E-02  1.48450511935E-02  1.58024747378E-02  1.68216467956E-02
  1.79065498038E-02  1.90614230444E-02  2.02907792099E-02  2.15994220361E-02
  2.29924650732E-02  2.44753516673E-02  2.60538762299E-02  2.77342068801E-02
  2.95229095463E-02  3.14269736232E-02  3.34538392824E-02  3.56114265457E-02
  3.79081662320E-02  4.03530329017E-02  4.29555799244E-02  4.57259768092E-02
  4.86750489420E-02  5.18143198863E-02  5.51560564115E-02  5.87133164258E-02
  6.25000000000E-02  6.65309036824E-02  7.08217783167E-02  7.53893905888E-02
  8.02515885430E-02  8.54273713234E-02  9.09369634136E-02  9.68018936646E-02
  1.03045079419E-01  1.09690916060E-01  1.16765372340E-01  1.24296091849E-01
  1.32312501038E-01  1.40845924201E-01  1.49929705873E-01  1.59599341129E-01
  1.69892614279E-01  1.80849746511E-01  1.92513553057E-01  2.04929610496E-01
  2.18146434841E-01  2.32215671121E-01  2.47192295183E-01  2.63134828509E-01
  2.80105566896E-01  2.98170823873E-01  3.17401189824E-01  3.37871807821E-01
  3.59662667250E-01  3.82858916368E-01  4.07551195021E-01  4.33835988825E-01
  4.61816006183E-01  4.91600579622E-01  5.23306093008E-01  5.57056436325E-01
  5.92983489772E-01  6.31227639093E-01  6.71938324130E-01  7.15274622771E-01
  7.61405872544E-01  8.10512332311E-01  8.62785886629E-01  9.18430795549E-01
  9.77664492762E-01  1.04071843523E+00  1.10783900759E+00  1.17928848495E+00
  1.25534605770E+00  1.33630892245E+00  1.42249344335E+00  1.51423638829E+00
  1.61189624482E+00  1.71585462097E+00  1.82651773633E+00  1.94431800944E+00
  2.06971574742E+00  2.20320094466E+00  2.34529519748E+00  2.49655374224E+00
  2.65756762500E+00  2.82896601102E+00  3.01141864319E+00  3.20563845916E+00
  3.41238437707E+00  3.63246426109E+00  3.86673807815E+00  4.11612125828E+00
  4.38158827167E+00  4.66417643645E+00  4.96498997202E+00  5.28520431379E+00
  5.62607070628E+00  5.98892109232E+00  6.37517331767E+00  6.78633667130E+00
  7.22401778295E+00  7.68992690107E+00  8.18588457568E+00  8.71382877215E+00
  9.27582244391E+00  9.87406159345E+00  1.05108838532E+01  1.11887776201E+01
  1.19103917787E+01  1.26785460519E+01  1.34962420194E+01  1.43666748459E+01
  1.52932457665E+01  1.62795753773E+01  1.73295177827E+01  1.84471756554E+01
  1.96369162679E+01  2.09033885574E+01  2.22515412919E+01  2.36866424076E+01
  2.52142995933E+01  2.68404822026E+01  2.85715445793E+01  3.04142508874E+01
  3.23758015418E+01  3.44638613442E+01  3.66865894339E+01  3.90526711689E+01
  4.15713520653E+01  4.42524739232E+01  4.71065132847E+01  5.01446223705E+01
  5.33786726579E+01  5.68213012687E+01  6.04859603490E+01
  </PP_R>
  <PP_RAB>
  7.15454644091E-05  7.61597504242E-05  8.10716323191E-05  8.63003033792E-05
  9.18661947500E-05  9.77910552733E-05  1.04098036470E-04  1.10811783007E-04
  1.17958528993E-04  1.25566200496E-04  1.33664524655E-04  1.42285145849E-04
  1.51461749343E-04  1.61230192913E-04  1.71628646966E-04  1.82697743687E-04
  1.94480735812E-04  2.07023665638E-04  2.20375544937E-04  2.34588546466E-04
  2.49718207839E-04  2.65823648535E-04  2.82967800915E-04  3.01217656126E-04
  3.20644525875E-04  3.41324321076E-04  3.63337848479E-04  3.86771126421E-04
  4.11715720945E-04  4.38269103595E-04  4.66535032292E-04  4.96623956766E-04
  5.28653450143E-04  5.62748668365E-04  5.99042839238E-04  6.37677783023E-04
  6.78804466603E-04  7.22583593388E-04  7.69186231266E-04  8.18794481059E-04
  8.71602188080E-04  9.27815699592E-04  9.87654671112E-04  1.05135292472E-03
  1.11915936274E-03  1.19133894028E-03  1.26817370062E-03  1.34996387725E-03
  1.43702906708E-03  1.52970947921E-03  1.62836726437E-03  1.73338793000E-03
  1.84518184664E-03  1.96418585145E-03  2.09086495515E-03  2.22571415911E-03
  2.36926038950E-03  2.52206455636E-03  2.68472374528E-03  2.85787355057E-03
  3.04219055887E-03  3.23839499289E-03  3.44725352572E-03  3.66958227662E-03
  3.90625000000E-03  4.15818148015E-03  4.42636114479E-03  4.71183691180E-03
  5.01572428394E-03  5.33921070771E-03  5.68356021335E-03  6.05011835404E-03
  6.44031746367E-03  6.85568225375E-03  7.29783577122E-03  7.76850574056E-03
  8.26953131489E-03  8.80287026255E-03  9.37060661706E-03  9.97495882056E-03
  1.06182883924E-02  1.13031091569E-02  1.20320970661E-02  1.28081006560E-02
  1.36341521776E-02  1.45134794451E-02  1.54495184489E-02  1.64459267818E-02
  1.75065979310E-02  1.86356764921E-02  1.98375743640E-02  2.11169879888E-02
  2.24789167031E-02  2.39286822730E-02  2.54719496888E-02  2.71147493016E-02
  2.88635003864E-02  3.07250362263E-02  3.27066308130E-02  3.48160272703E-02
  3.70614681108E-02  3.94517274433E-02  4.19961452581E-02  4.47046639232E-02
  4.75878670340E-02  5.06570207694E-02  5.39241179143E-02  5.74019247218E-02
  6.11040307976E-02  6.50449022016E-02  6.92399379745E-02  7.37055303096E-02
  7.84591286062E-02  8.35193076528E-02  8.89058402091E-02  9.46397742680E-02
  1.00743515302E-01  1.07240913810E-01  1.14157358520E-01  1.21519875590E-01
  1.29357234214E-01  1.37700059041E-01  1.46580949842E-01  1.56034608890E-01
  1.66097976563E-01  1.76810375689E-01  1.88213665200E-01  2.00352403698E-01
  2.13274023567E-01  2.27029016318E-01  2.41671129884E-01  2.57257578642E-01
  2.73849266979E-01  2.91511027278E-01  3.10311873251E-01  3.30325269612E-01
  3.51629419143E-01  3.74307568270E-01  3.98448332354E-01  4.24146041956E-01
  4.51501111434E-01  4.80620431317E-01  5.11617785980E-01  5.44614298259E-01
  5.79738902744E-01  6.17128849591E-01  6.56930240828E-01  6.99298601256E-01
  7.44399486167E-01  7.92409128246E-01  8.43515126213E-01  8.97917177867E-01
  9.55827860407E-01  1.01747346108E+00  1.08309486142E+00  1.15294847846E+00
  1.22730726674E+00  1.30646178484E+00  1.39072133075E+00  1.48041515048E+00
  1.57589372458E+00  1.67753013766E+00  1.78572153621E+00  1.90089068046E+00
  2.02348759636E+00  2.15399133401E+00  2.29291183962E+00  2.44079194806E+00
  2.59820950408E+00  2.76577962020E+00  2.94415708029E+00  3.13403889815E+00
  3.33616704112E+00  3.55133132929E+00  3.78037252182E+00
  </PP_RAB>
</PP_MESH>


<PP_NLCC>
  9.19270000000E-01  9.19270000000E-01  9.19270000000E-01  9.19269000000E-01
  9.19269000000E-01  9.19269000000E-01  9.19268000000E-01  9.19268000000E-01
  9.19267000000E-01  9.19267000000E-01  9.19266000000E-01  9.19265000000E-01
  9.19264000000E-01  9.19263000000E-01  9.19262000000E-01  9.19261000000E-01
  9.19259000000E-01  9.19258000000E-01  9.19256000000E-01  9.19254000000E-01
  9.19251000000E-01  9.19249000000E-01  9.19246000000E-01  9.19242000000E-01
  9.19238000000E-01  9.19234000000E-01  9.19229000000E-01  9.19223000000E-01
  9.19216000000E-01  9.19209000000E-01  9.19201000000E-01  9.19191000000E-01
  9.19180000000E-01  9.19168000000E-01  9.19154000000E-01  9.19139000000E-01
  9.19121000000E-01  9.19101000000E-01  9.19078000000E-01  9.19052000000E-01
  9.19023000000E-01  9.18990000000E-01  9.18953000000E-01  9.18910000000E-01
  9.18862000000E-01  9.18807000000E-01  9.18745000000E-01  9.18675000000E-01
  9.18596000000E-01  9.18506000000E-01  9.18404000000E-01  9.18288000000E-01
  9.18157000000E-01  9.18009000000E-01  9.17841000000E-01  9.17651000000E-01
  9.17435000000E-01  9.17191000000E-01  9.16914000000E-01  9.16600000000E-01
  9.16244000000E-01  9.15842000000E-01  9.15386000000E-01  9.14869000000E-01
  9.14284000000E-01  9.13621000000E-01  9.12870000000E-01  9.12020000000E-01
  9.11057000000E-01  9.09966000000E-01  9.08731000000E-01  9.07333000000E-01
  9.05751000000E-01  9.03959000000E-01  9.01932000000E-01  8.99638000000E-01
  8.97043000000E-01  8.94108000000E-01  8.90789000000E-01  8.87037000000E-01
  8.82796000000E-01  8.78006000000E-01  8.72597000000E-01  8.66491000000E-01
  8.59603000000E-01  8.51837000000E-01  8.43087000000E-01  8.33236000000E-01
  8.22155000000E-01  8.09704000000E-01  7.95728000000E-01  7.80062000000E-01
  7.62526000000E-01  7.42931000000E-01  7.21078000000E-01  6.96759000000E-01
  6.69765000000E-01  6.39889000000E-01  6.06933000000E-01  5.70720000000E-01
  5.31104000000E-01  4.87988000000E-01  4.41344000000E-01  3.91237000000E-01
  3.37852000000E-01  2.81528000000E-01  2.22795000000E-01  1.62407000000E-01
  1.01503000000E-01  6.15665000000E-02  3.61879000000E-02  2.05755000000E-02
  1.12941000000E-02  5.97290000000E-03  3.03704000000E-03  1.48151000000E-03
  6.91786000000E-04  3.08479000000E-04  1.31036000000E-04  5.28847000000E-05
  2.02221000000E-05  7.30432000000E-06  2.48419000000E-06  7.92724000000E-07
  2.36454000000E-07  6.56560000000E-08  1.68960000000E-08  4.01100000000E-09
  8.74000000000E-10  1.74000000000E-10  3.10000000000E-11  5.00000000000E-12
  1.00000000000E-12  0.00000000000E+00  0.00000000000E+00  0.00000000000E+00
  0.00000000000E+00  0.00000000000E+00  0.00000000000E+00  0.00000000000E+00
  0.00000000000E+00  0.00000000000E+00  0.00000000000E+00  0.00000000000E+00
  0.00000000000E+00  0.00000000000E+00  0.00000000000E+00  0.00000000000E+00
  0.00000000000E+00  0.00000000000E+00  0.00000000000E+00  0.00000000000E+00
  0.00000000000E+00  0.00000000000E+00  0.00000000000E+00  0.00000000000E+00
  0.00000000000E+00  0.00000000000E+00  0.00000000000E+00  0.00000000000E+00
  0.00000000000E+00  0.00000000000E+00  0.00000000000E+00  0.00000000000E+00
  0.00000000000E+00  0.00000000000E+00  0.00000000000E+00  0.00000000000E+00
  0.00000000000E+00  0.00000000000E+00  0.00000000000E+00  0.00000000000E+00
  0.00000000000E+00  0.00000000000E+00  0.00000000000E+00
</PP_NLCC>


<PP_LOCAL>
 -8.80754770000E+00 -8.80754700000E+00 -8.80754620000E+00 -8.80754520000E+00
 -8.80754420000E+00 -8.80754300000E+00 -8.80754170000E+00 -8.80754020000E+00
 -8.80753840000E+00 -8.80753650000E+00 -8.80753430000E+00 -8.80753180000E+00
 -8.80752890000E+00 -8.80752570000E+00 -8.80752210000E+00 -8.80751800000E+00
 -8.80751330000E+00 -8.80750800000E+00 -8.80750200000E+00 -8.80749520000E+00
 -8.80748750000E+00 -8.80747880000E+00 -8.80746890000E+00 -8.80745770000E+00
 -8.80744500000E+00 -8.80743060000E+00 -8.80741430000E+00 -8.80739590000E+00
 -8.80737500000E+00 -8.80735130000E+00 -8.80732440000E+00 -8.80729400000E+00
 -8.80725950000E+00 -8.80722050000E+00 -8.80717630000E+00 -8.80712620000E+00
 -8.80706950000E+00 -8.80700520000E+00 -8.80693240000E+00 -8.80685000000E+00
 -8.80675670000E+00 -8.80665100000E+00 -8.80653130000E+00 -8.80639580000E+00
 -8.80624250000E+00 -8.80606890000E+00 -8.80587260000E+00 -8.80565040000E+00
 -8.80539910000E+00 -8.80511480000E+00 -8.80479350000E+00 -8.80443030000E+00
 -8.80402000000E+00 -8.80355660000E+00 -8.80303340000E+00 -8.80244320000E+00
 -8.80177760000E+00 -8.80102750000E+00 -8.80018290000E+00 -8.79923260000E+00
 -8.79816450000E+00 -8.79696530000E+00 -8.79562070000E+00 -8.79411520000E+00
 -8.79243240000E+00 -8.79055500000E+00 -8.78846530000E+00 -8.78614500000E+00
 -8.78357640000E+00 -8.78074280000E+00 -8.77762910000E+00 -8.77422370000E+00
 -8.77051980000E+00 -8.76651730000E+00 -8.76222560000E+00 -8.75766670000E+00
 -8.75287910000E+00 -8.74792180000E+00 -8.74287980000E+00 -8.73786930000E+00
 -8.73304380000E+00 -8.72859890000E+00 -8.72477700000E+00 -8.72186950000E+00
 -8.72021490000E+00 -8.72019190000E+00 -8.72220450000E+00 -8.72665700000E+00
 -8.73391810000E+00 -8.74427490000E+00 -8.75788110000E+00 -8.77471020000E+00
 -8.79453110000E+00 -8.81693170000E+00 -8.84141590000E+00 -8.86758640000E+00
 -8.89538990000E+00 -8.92534380000E+00 -8.95860690000E+00 -8.99676710000E+00
 -9.04134660000E+00 -9.09325560000E+00 -9.15252010000E+00 -9.21837610000E+00
 -9.28942510000E+00 -9.36357930000E+00 -9.43832440000E+00 -9.56285810000E+00
 -9.76240260000E+00 -9.83054720000E+00 -9.70725460000E+00 -9.50299320000E+00
 -9.22577760000E+00 -8.86447460000E+00 -8.41990930000E+00 -7.92551170000E+00
 -7.44498440000E+00 -6.99375050000E+00 -6.56994290000E+00 -6.17185580000E+00
 -5.79790760000E+00 -5.44662440000E+00 -5.11662790000E+00 -4.80662630000E+00
 -4.51540730000E+00 -4.24183250000E+00 -3.98483290000E+00 -3.74340400000E+00
 -3.51660270000E+00 -3.30354250000E+00 -3.10339100000E+00 -2.91536600000E+00
 -2.73873290000E+00 -2.57280150000E+00 -2.41692330000E+00 -2.27048930000E+00
 -2.13292730000E+00 -2.00369990000E+00 -1.88230180000E+00 -1.76825880000E+00
 -1.66112540000E+00 -1.56048300000E+00 -1.46593810000E+00 -1.37712140000E+00
 -1.29368580000E+00 -1.21530540000E+00 -1.14167370000E+00 -1.07250320000E+00
 -1.00752350000E+00 -9.46480770000E-01 -8.89136400000E-01 -8.35266350000E-01
 -7.84660120000E-01 -7.37119960000E-01 -6.92460120000E-01 -6.50506080000E-01
 -6.11093910000E-01 -5.74069600000E-01 -5.39288490000E-01 -5.06614650000E-01
 -4.75920420000E-01 -4.47085860000E-01 -4.19998290000E-01 -3.94551880000E-01
 -3.70647190000E-01 -3.48190820000E-01 -3.27095000000E-01 -3.07277320000E-01
 -2.88660330000E-01 -2.71171280000E-01 -2.54741840000E-01 -2.39307810000E-01
 -2.24808890000E-01 -2.11188410000E-01 -1.98393150000E-01
</PP_LOCAL>


<PP_NONLOCAL>
  <PP_BETA>
    1    0             Beta    L
   147
  3.40349857797E-03  3.62300601075E-03  3.85667054903E-03  4.10540532725E-03
  4.37018235335E-03  4.65203625559E-03  4.95206839564E-03  5.27145133818E-03
  5.61143306431E-03  5.97334222936E-03  6.35859318617E-03  6.76869128938E-03
  7.20523931311E-03  7.66994326929E-03  8.16461942079E-03  8.69120056938E-03
  9.25174556411E-03  9.84844481295E-03  1.04836300893E-02  1.11597845466E-02
  1.18795507910E-02  1.26457432294E-02  1.34613560984E-02  1.43295775954E-02
  1.52538036194E-02  1.62376459739E-02  1.72849528921E-02  1.83998197118E-02
  1.95866055314E-02  2.08499536410E-02  2.21948048296E-02  2.36264216947E-02
  2.51504065343E-02  2.67727229820E-02  2.84997225025E-02  3.03381674302E-02
  3.22952587253E-02  3.43786628079E-02  3.65965467673E-02  3.89576056454E-02
  4.14711020022E-02  4.41468991471E-02  4.69955053379E-02  5.00281151692E-02
  5.32566537139E-02  5.66938271628E-02  6.03531777294E-02  6.42491349628E-02
  6.83970835464E-02  7.28134232210E-02  7.75156448410E-02  8.25223994533E-02
  8.78535935045E-02  9.35304557206E-02  9.95756681610E-02  1.06013443635E-01
  1.12869639508E-01  1.20171903259E-01  1.27949808349E-01  1.36234979192E-01
  1.45061282981E-01  1.54465008786E-01  1.64485063445E-01  1.75163189046E-01
  1.86544227817E-01  1.98676401760E-01  2.11611603772E-01  2.25405777678E-01
  2.40119263398E-01  2.55817294600E-01  2.72570442863E-01  2.90455199981E-01
  3.09554603953E-01  3.29958926038E-01  3.51766476890E-01  3.75084482651E-01
  4.00030045341E-01  4.26731237063E-01  4.55328230298E-01  4.85974542460E-01
  5.18838328384E-01  5.54103591222E-01  5.91971332329E-01  6.32660469190E-01
  6.76408120171E-01  7.23469251938E-01  7.74114785049E-01  8.28627734047E-01
  8.87296023067E-01  9.50400609700E-01  1.01819671754E+00  1.09088435817E+00
  1.16856526406E+00  1.25117819911E+00  1.33840670319E+00  1.42954791479E+00
  1.52333085124E+00  1.61767106849E+00  1.70935173327E+00  1.79362980081E+00
  1.86379013312E+00  1.91071932363E+00  1.92265357424E+00  1.88539455630E+00
  1.78346069916E+00  1.60280770669E+00  1.33572921773E+00  9.88016214629E-01
  5.86954592477E-01  1.86099195500E-01 -1.40099566088E-01 -3.18750896134E-01
 -3.17544067285E-01 -1.82999265184E-01 -4.02322603648E-02  0.00000000000E+00
  0.00000000000E+00  0.00000000000E+00  0.00000000000E+00  0.00000000000E+00
  0.00000000000E+00  0.00000000000E+00  0.00000000000E+00  0.00000000000E+00
  0.00000000000E+00  0.00000000000E+00  0.00000000000E+00  0.00000000000E+00
  0.00000000000E+00  0.00000000000E+00  0.00000000000E+00  0.00000000000E+00
  0.00000000000E+00  0.00000000000E+00  0.00000000000E+00  0.00000000000E+00
  0.00000000000E+00  0.00000000000E+00  0.00000000000E+00  0.00000000000E+00
  0.00000000000E+00  0.00000000000E+00  0.00000000000E+00  0.00000000000E+00
  0.00000000000E+00  0.00000000000E+00  0.00000000000E+00
  </PP_BETA>
  <PP_BETA>
    2    2             Beta    L
   147
 -1.58726256184E-08 -1.91460370680E-08 -2.30945232182E-08 -2.78573064848E-08
 -3.36023160476E-08 -4.05321184251E-08 -4.88910504679E-08 -5.89738377739E-08
 -7.11359993022E-08 -8.58063486891E-08 -1.03502154637E-07 -1.24847342286E-07
 -1.50594532587E-07 -1.81651532241E-07 -2.19113358327E-07 -2.64300869490E-07
 -3.18807319141E-07 -3.84554502318E-07 -4.63860529258E-07 -5.59521583548E-07
 -6.74910510704E-07 -8.14095626345E-07 -9.81984173021E-07 -1.18449556075E-06
 -1.42876950908E-06 -1.72341862107E-06 -2.07883071375E-06 -2.50753614135E-06
 -3.02464935136E-06 -3.64840095778E-06 -4.40078034731E-06 -5.30831184284E-06
 -6.40298813774E-06 -7.72339870566E-06 -9.31608793802E-06 -1.12371983757E-05
 -1.35544464105E-05 -1.63495046514E-05 -1.97208884654E-05 -2.37874141492E-05
 -2.86923873521E-05 -3.46086573254E-05 -4.17446839372E-05 -5.03518906790E-05
 -6.07334982365E-05 -7.32551969920E-05 -8.83580129790E-05 -1.06573779166E-04
 -1.28543867417E-04 -1.55041689190E-04 -1.86999812678E-04 -2.25542743039E-04
 -2.72026270552E-04 -3.28085012805E-04 -3.95689572667E-04 -4.77215515210E-04
 -5.75526159382E-04 -6.94072648484E-04 -8.37013830431E-04 -1.00936119464E-03
 -1.21715236602E-03 -1.46766035046E-03 -1.76964443815E-03 -2.13365184269E-03
 -2.57237954615E-03 -3.10110808556E-03 -3.73822197162E-03 -4.50583126329E-03
 -5.43051493935E-03 -6.54421155502E-03 -7.88527557170E-03 -9.49973692627E-03
 -1.14427986787E-02 -1.37806063366E-02 -1.65923356549E-02 -1.99726549131E-02
 -2.40346003582E-02 -2.89129232385E-02 -3.47679694869E-02 -4.17901147748E-02
 -5.02047996098E-02 -6.02781875534E-02 -7.23233278972E-02 -8.67068147497E-02
 -1.03855604650E-01 -1.24263750159E-01 -1.48498212250E-01 -1.77203133716E-01
 -2.11100749979E-01 -2.50987264843E-01 -2.97720569982E-01 -3.52195959898E-01
 -4.15304713020E-01 -4.87869480918E-01 -5.70548721896E-01 -6.63703716341E-01
 -7.67221520775E-01 -8.80290255116E-01 -1.00112824820E+00 -1.12667596155E+00
 -1.25227999714E+00 -1.37143339918E+00 -1.47567636722E+00 -1.55479020194E+00
 -1.59741334279E+00 -1.59221033887E+00 -1.52967128038E+00 -1.40403568802E+00
 -1.21653842589E+00 -9.77688483911E-01 -7.05981709005E-01 -4.27481013364E-01
 -1.77633361969E-01  7.77454523954E-03  1.03681067679E-01  1.10717580779E-01
  6.63408611169E-02  1.55251598977E-02  1.90612086614E-06  1.14814187612E-06
  7.10109540189E-07  5.12661110072E-07  4.12297688241E-07  3.09158507952E-07
  3.07390709952E-07  3.03961193952E-07  2.98965863953E-07  1.95026543897E-07
  2.37350915033E-07  2.29911219828E-07  2.21424874834E-07  1.69340132099E-07
  1.60197696094E-07  1.49347380087E-07  1.36725276080E-07  1.22848479935E-07
  8.14594049873E-08  9.47232479501E-08  6.12026699904E-08  3.47333939817E-08
  2.92059099846E-08  2.42402620142E-08  1.98416530116E-08  1.60059030093E-08
  1.27095913933E-08  9.95200900581E-09  3.83333699373E-09
  </PP_BETA>
  <PP_DIJ>
    2                  Number of nonzero Dij
    1    1  3.17992503600E+00
    2    2 -4.95865384499E+00
  </PP_DIJ>
</PP_NONLOCAL>


<PP_PSWFC>
3S    0  2.00          Wavefunction
  4.16129130000E-04  4.42967230000E-04  4.71536250000E-04  5.01947840000E-04
  5.34320830000E-04  5.68781730000E-04  6.05465190000E-04  6.44514580000E-04
  6.86082490000E-04  7.30331350000E-04  7.77434100000E-04  8.27574790000E-04
  8.80949390000E-04  9.37766470000E-04  9.98248100000E-04  1.06263060000E-03
  1.13116570000E-03  1.20412120000E-03  1.28178220000E-03  1.36445230000E-03
  1.45245460000E-03  1.54613320000E-03  1.64585420000E-03  1.75200740000E-03
  1.86500800000E-03  1.98529760000E-03  2.11334670000E-03  2.24965600000E-03
  2.39475850000E-03  2.54922190000E-03  2.71365030000E-03  2.88868710000E-03
  3.07501730000E-03  3.27337000000E-03  3.48452180000E-03  3.70929950000E-03
  3.94858350000E-03  4.20331120000E-03  4.47448110000E-03  4.76315630000E-03
  5.07046930000E-03  5.39762610000E-03  5.74591150000E-03  6.11669420000E-03
  6.51143220000E-03  6.93167920000E-03  7.37909080000E-03  7.85543150000E-03
  8.36258230000E-03  8.90254860000E-03  9.47746890000E-03  1.00896240000E-02
  1.07414480000E-02  1.14355370000E-02  1.21746650000E-02  1.29617930000E-02
  1.38000840000E-02  1.46929200000E-02  1.56439190000E-02  1.66569510000E-02
  1.77361610000E-02  1.88859920000E-02  2.01112090000E-02  2.14169270000E-02
  2.28086440000E-02  2.42922770000E-02  2.58741990000E-02  2.75612900000E-02
  2.93609810000E-02  3.12813210000E-02  3.33310400000E-02  3.55196280000E-02
  3.78574260000E-02  4.03557300000E-02  4.30269140000E-02  4.58845730000E-02
  4.89436880000E-02  5.22208290000E-02  5.57343820000E-02  5.95048290000E-02
  6.35550760000E-02  6.79108430000E-02  7.26011300000E-02  7.76587790000E-02
  8.31211340000E-02  8.90308520000E-02  9.54368530000E-02  1.02395480000E-01
  1.09971870000E-01  1.18241600000E-01  1.27292660000E-01  1.37227710000E-01
  1.48166850000E-01  1.60250650000E-01  1.73643670000E-01  1.88538200000E-01
  2.05158080000E-01  2.23762090000E-01  2.44646200000E-01  2.68143230000E-01
  2.94617830000E-01  3.24453540000E-01  3.58027100000E-01  3.95663860000E-01
  4.37566840000E-01  4.83712770000E-01  5.33713270000E-01  5.86651600000E-01
  6.40928180000E-01  6.94180850000E-01  7.43374560000E-01  7.85151010000E-01
  8.16445710000E-01  8.35197010000E-01  8.40757420000E-01  8.33607380000E-01
  8.14571480000E-01  7.84689620000E-01  7.45314530000E-01  6.98050100000E-01
  6.44663580000E-01  5.86996120000E-01  5.26878180000E-01  4.66054770000E-01
  4.06123570000E-01  3.48486920000E-01  2.94316640000E-01  2.44529270000E-01
  1.99770740000E-01  1.60411670000E-01  1.26556880000E-01  9.80712400000E-02
  7.46203800000E-02  5.57213980000E-02  4.07979050000E-02  2.92355310000E-02
  2.04380530000E-02  1.38797390000E-02  9.12482830000E-03  5.79902290000E-03
  3.56226880000E-03  2.11475140000E-03  1.21219680000E-03  6.69891890000E-04
  3.56194490000E-04  1.81807370000E-04  8.88505690000E-05  4.14593580000E-05
  1.84161220000E-05  7.76238130000E-06  3.09402330000E-06  1.16195550000E-06
  4.09527590000E-07  1.34886340000E-07  4.13300510000E-08  1.17231520000E-08
  3.06247250000E-09  7.35300200000E-10  1.74600630000E-10  3.77136130000E-11
  7.36491920000E-12  1.29190510000E-12  2.02152510000E-13  2.80099810000E-14
  3.40976560000E-15  3.61649180000E-16  3.31238650000E-17  2.59522780000E-18
  1.72193320000E-19  9.57208970000E-21  4.40747470000E-22  1.66069110000E-23
  5.05460070000E-25  1.22575780000E-26  2.33387450000E-28
3P    1  4.00          Wavefunction
  9.64639160000E-07  1.09307930000E-06  1.23862110000E-06  1.40354150000E-06
  1.59042070000E-06  1.80218260000E-06  2.04214030000E-06  2.31404790000E-06
  2.62215950000E-06  2.97129560000E-06  3.36691850000E-06  3.81521790000E-06
  4.32320740000E-06  4.89883480000E-06  5.55110570000E-06  6.29022500000E-06
  7.12775650000E-06  8.07680330000E-06  9.15221340000E-06  1.03708120000E-05
  1.17516630000E-05  1.33163700000E-05  1.50894140000E-05  1.70985330000E-05
  1.93751590000E-05  2.19549090000E-05  2.48781430000E-05  2.81905920000E-05
  3.19440790000E-05  3.61973230000E-05  4.10168620000E-05  4.64780940000E-05
  5.26664510000E-05  5.96787430000E-05  6.76246620000E-05  7.66285080000E-05
  8.68311240000E-05  9.83921040000E-05  1.11492280000E-04  1.26336560000E-04
  1.43157120000E-04  1.62217050000E-04  1.83814420000E-04  2.08287000000E-04
  2.36017490000E-04  2.67439520000E-04  3.03044390000E-04  3.43388780000E-04
  3.89103400000E-04  4.40902840000E-04  4.99596710000E-04  5.66102270000E-04
  6.41458690000E-04  7.26843250000E-04  8.23589610000E-04  9.33208600000E-04
  1.05741160000E-03  1.19813730000E-03  1.35758120000E-03  1.53823050000E-03
  1.74290150000E-03  1.97478380000E-03  2.23748900000E-03  2.53510660000E-03
  2.87226620000E-03  3.25420850000E-03  3.68686510000E-03  4.17694860000E-03
  4.73205420000E-03  5.36077360000E-03  6.07282390000E-03  6.87919210000E-03
  7.79229750000E-03  8.82617340000E-03  9.99667110000E-03  1.13216880000E-02
  1.28214200000E-02  1.45186470000E-02  1.64390450000E-02  1.86115310000E-02
  2.10686510000E-02  2.38469920000E-02  2.69876460000E-02  3.05367020000E-02
  3.45457770000E-02  3.90725870000E-02  4.41815360000E-02  4.99443260000E-02
  5.64405800000E-02  6.37584290000E-02  7.19950670000E-02  8.12572080000E-02
  9.16613920000E-02  1.03334070000E-01  1.16411350000E-01  1.31038260000E-01
  1.47367370000E-01  1.65556430000E-01  1.85764880000E-01  2.08148540000E-01
  2.32852210000E-01  2.59999330000E-01  2.89677950000E-01  3.21922150000E-01
  3.56687990000E-01  3.93823430000E-01  4.33032230000E-01  4.73833560000E-01
  5.15521290000E-01  5.57131500000E-01  5.97431820000E-01  6.34952300000E-01
  6.68080240000E-01  6.95234090000E-01  7.15104830000E-01  7.26891500000E-01
  7.30363210000E-01  7.25637050000E-01  7.13061900000E-01  6.93185620000E-01
  6.66722860000E-01  6.34519050000E-01  5.97514170000E-01  5.56709290000E-01
  5.13137410000E-01  4.67838680000E-01  4.21837620000E-01  3.76118230000E-01
  3.31593210000E-01  2.89067450000E-01  2.49201010000E-01  2.12479100000E-01
  1.79194370000E-01  1.49443800000E-01  1.23141550000E-01  1.00055060000E-01
  7.98869470000E-02  6.24145710000E-02  4.75791830000E-02  3.53775020000E-02
  2.56867300000E-02  1.82294850000E-02  1.26467170000E-02  8.57143130000E-03
  5.66919750000E-03  3.65399630000E-03  2.29133370000E-03  1.39543410000E-03
  8.23755970000E-04  4.70398590000E-04  2.59276320000E-04  1.37619030000E-04
  7.01676130000E-05  3.42760640000E-05  1.59962970000E-05  7.11082710000E-06
  3.00128980000E-06  1.19877050000E-06  4.51759350000E-07  1.60910510000E-07
  5.68505410000E-08  1.87538520000E-08  5.75065170000E-09  1.63138100000E-09
  4.26004770000E-10  1.01850370000E-10  2.21675950000E-11  4.36557630000E-12
  7.72896220000E-13  1.22170470000E-13  1.71156420000E-14  2.10869460000E-15
  2.26579840000E-16  2.10463780000E-17  1.67415700000E-18
3D    2  0.00          Wavefunction
  1.40444730000E-09  1.69408650000E-09  2.04345790000E-09  2.46488020000E-09
  2.97321220000E-09  3.58637740000E-09  4.32599530000E-09  5.21814430000E-09
  6.29428060000E-09  7.59234770000E-09  9.15811410000E-09  1.10467870000E-08
  1.33249580000E-08  1.60729540000E-08  1.93876650000E-08  2.33859620000E-08
  2.82088190000E-08  3.40262830000E-08  4.10434660000E-08  4.95077810000E-08
  5.97176600000E-08  7.20330800000E-08  8.68882510000E-08  1.04806920000E-07
  1.26420850000E-07  1.52492070000E-07  1.83939750000E-07  2.21872590000E-07
  2.67627940000E-07  3.22818870000E-07  3.89391090000E-07  4.69691490000E-07
  5.66550860000E-07  6.83383650000E-07  8.24308280000E-07  9.94292240000E-07
  1.19932720000E-06  1.44663980000E-06  1.74494660000E-06  2.10476090000E-06
  2.53876260000E-06  3.06224530000E-06  3.69365410000E-06  4.45523500000E-06
  5.37381720000E-06  6.48175750000E-06  7.81807730000E-06  9.42983450000E-06
  1.13737770000E-05  1.37183350000E-05  1.65460240000E-05  1.99563370000E-05
  2.40692340000E-05  2.90293440000E-05  3.50110240000E-05  4.22244560000E-05
  5.09229860000E-05  6.14119590000E-05  7.40593510000E-05  8.93085610000E-05
  1.07693800000E-04  1.29858570000E-04  1.56577930000E-04  1.88785120000E-04
  2.27603670000E-04  2.74385780000E-04  3.30758420000E-04  3.98678460000E-04
  4.80498660000E-04  5.79046540000E-04  6.97718460000E-04  8.40591750000E-04
  1.01255800000E-03  1.21948160000E-03  1.46838670000E-03  1.76767910000E-03
  2.12740670000E-03  2.55956520000E-03  3.07845470000E-03  3.70109510000E-03
  4.44770370000E-03  5.34224470000E-03  6.41305080000E-03  7.69352290000E-03
  9.22290280000E-03  1.10471140000E-02  1.32196500000E-02  1.58024900000E-02
  1.88669850000E-02  2.24946530000E-02  2.67777890000E-02  3.18197430000E-02
  3.77346970000E-02  4.46467100000E-02  5.26877330000E-02  6.19942670000E-02
  7.27022960000E-02  8.49401170000E-02  9.88187820000E-02  1.14420020000E-01
  1.31781890000E-01  1.50882830000E-01  1.71625700000E-01  1.93824120000E-01
  2.17194640000E-01  2.41358830000E-01  2.65859610000E-01  2.90195070000E-01
  3.13870120000E-01  3.36461640000E-01  3.57686310000E-01  3.77454080000E-01
  3.95885000000E-01  4.13267060000E-01  4.29940020000E-01  4.46112670000E-01
  4.61669610000E-01  4.76103380000E-01  4.88748940000E-01  4.99192120000E-01