<UPF version="2.0.1">
  <PP_INFO>
    Generated using FHI98PP, converted with fhi2upf.x v.5.0.1
    Author: Abinit web site
    Generation date: 10-Jul-2012, PG
    Pseudopotential type: SL
    Element: Te
    Functional: SLA-PW

    Suggested minimum cutoff for wavefunctions:   0. Ry
    Suggested minimum cutoff for charge density:   0. Ry
    The Pseudo was generated with a Non-Relativistic Calculation
    L component and cutoff radius for Local Potential:  0   0.0000

    Valence configuration: 
    nl pn  l   occ       Rcut    Rcut US       E pseu
    5s  5  0  2.00      0.000      0.000     0.000000
    5p  5  1  4.00      0.000      0.000     0.000000
    5d  5  2  0.00      0.000      0.000     0.000000
    4f  4  3  0.00      0.000      0.000     0.000000

    Generation configuration: not available.
    Comment:
    tellurium, fhi98PP : Trouiller-Martins-type, LDA Ceperley/Alder Perdew/Wang (199
  </PP_INFO>
  <!--                               -->
  <!-- END OF HUMAN READABLE SECTION -->
  <!--                               -->
  <PP_HEADER generated="Generated using FHI98PP, converted with fhi2upf.x v.5.0.1"
             author="Abinit web site"
             date="10-Jul-2012, PG"
             comment="tellurium, fhi98PP : Trouiller-Martins-type, LDA Ceperley/Alder Perdew/Wang (199"
             element="Te"
             pseudo_type="SL"
             relativistic="no"
             is_ultrasoft="F"
             is_paw="F"
             is_coulomb="F"
             has_so="F"
             has_wfc="F"
             has_gipaw="F"
             paw_as_gipaw="F"
             core_correction="F"
             functional="SLA-PW"
             z_valence="6.000000000000000E+000"
             total_psenergy="0.000000000000000E+000"
             wfc_cutoff="0.000000000000000E+000"
             rho_cutoff="0.000000000000000E+000"
             l_max="3"
             l_max_rho="0"
             l_local="0"
             mesh_size="549"
             number_of_wfc="4"
             number_of_proj="3"/>
  <PP_MESH dx="2.439988682353512E-002" mesh="549" xmin="-5.075173815233808E+000" rmax="7.707048906404100E+001"
zmesh="5.200000000000000E+001">
    <PP_R type="real" size="549" columns="4">
 1.201923076923100E-004  1.231610576923100E-004  1.262031358173100E-004  1.293203532720000E-004 
 1.325145659978100E-004  1.357876757779600E-004  1.391416313696800E-004  1.425784296645100E-004 
 1.461001168772200E-004  1.497087897640900E-004  1.534065968712600E-004  1.571957398139800E-004 
 1.610784745873800E-004  1.650571129096900E-004  1.691340235985600E-004  1.733116339814500E-004 
 1.775924313407900E-004  1.819789643949100E-004  1.864738448154600E-004  1.910797487824000E-004 
 1.957994185773300E-004  2.006356642161900E-004  2.055913651223300E-004  2.106694718408500E-004 
 2.158730077953200E-004  2.212050710878600E-004  2.266688363437300E-004  2.322675566014200E-004 
 2.380045652494800E-004  2.438832780111400E-004  2.499071949780200E-004  2.560799026939700E-004 
 2.624050762905100E-004  2.688864816748900E-004  2.755279777722600E-004  2.823335188232300E-004 
 2.893071567381700E-004  2.964530435096000E-004  3.037754336842900E-004  3.112786868962900E-004 
 3.189672704626300E-004  3.268457620430500E-004  3.349188523655200E-004  3.431913480189500E-004 
 3.516681743150100E-004  3.603543782205900E-004  3.692551313626400E-004  3.783757331073000E-004 
 3.877216137150500E-004  3.972983375738100E-004  4.071116065118900E-004  4.171672631927300E-004 
 4.274712945935900E-004  4.380298355700500E-004  4.488491725086300E-004  4.599357470695900E-004 
 4.712961600222100E-004  4.829371751747600E-004  4.948657234015800E-004  5.070889067696000E-004 
 5.196140027668099E-004  5.324484686351500E-004  5.455999458104400E-004  5.590762644719500E-004 
 5.728854482044100E-004  5.870357187750601E-004  6.015355010288000E-004  6.163934279042100E-004 
 6.316183455734500E-004  6.472193187091100E-004  6.632056358812300E-004  6.795868150874901E-004 
 6.963726094201500E-004  7.135730128728300E-004  7.311982662907901E-004  7.492588634681701E-004 
 7.677655573958400E-004  7.867293666635200E-004  8.061615820201000E-004  8.260737730960000E-004 
 8.464777952914700E-004  8.673857968351700E-004  8.888102260170000E-004  9.107638385996200E-004 
 9.332597054130300E-004  9.563112201367300E-004  9.799321072741099E-004  1.004136430323800E-003 
 1.028938600152800E-003  1.054353383576600E-003  1.080395912150900E-003  1.107081691181000E-003 
 1.134426608953200E-003  1.162446946194300E-003  1.191159385765300E-003  1.220581022593700E-003 
 1.250729373851800E-003  1.281622389385900E-003  1.313278462403800E-003  1.345716440425100E-003 
 1.378955636503600E-003  1.413015840725300E-003  1.447917331991200E-003  1.483680890091400E-003 
 1.520327808076600E-003  1.557879904936100E-003  1.596359538588100E-003  1.635789619191200E-003 
 1.676193622785200E-003  1.717595605268000E-003  1.760020216718100E-003  1.803492716071100E-003 
 1.848038986158000E-003  1.893685549116100E-003  1.940459582179300E-003  1.988388933859100E-003 
 2.037502140525400E-003  2.087828443396400E-003  2.139397805948300E-003  2.192240931755200E-003 
 2.246389282769600E-003  2.301875098054000E-003  2.358731412975900E-003  2.416992078876400E-003 
 2.476691783224700E-003  2.537866070270300E-003  2.600551362206000E-003  2.664784980852500E-003 
 2.730605169879500E-003  2.798051117575600E-003  2.867162980179700E-003  2.937981905790100E-003 
 3.010550058863100E-003  3.084910645317100E-003  3.161107938256400E-003  3.239187304331300E-003 
 3.319195230748300E-003  3.401179352947800E-003  3.485188482965600E-003  3.571272638494800E-003 
 3.659483072665700E-003  3.749872304560500E-003  3.842494150483200E-003  3.937403756000100E-003 
 4.034657628773300E-003  4.134313672204000E-003  4.236431219907400E-003  4.341071071039100E-003 
 4.448295526493800E-003  4.558168425998200E-003  4.670755186120400E-003  4.786122839217500E-003 
 4.904340073346200E-003  5.025477273157900E-003  5.149606561804900E-003  5.276801843881400E-003 
 5.407138849425300E-003  5.540695179006100E-003  5.677550349927600E-003  5.817785843570800E-003 
 5.961485153907000E-003  6.108733837208500E-003  6.259619562987500E-003  6.414232166193300E-003 
 6.572663700698300E-003  6.735008494105500E-003  6.901363203909900E-003  7.071826875046500E-003 
 7.246500998860200E-003  7.425489573532000E-003  7.608899165998200E-003  7.796838975398400E-003 
 7.989420898090700E-003  8.186759594273601E-003  8.388972556252100E-003  8.596180178391600E-003 
 8.808505828797801E-003  9.026075922769100E-003  9.249019998061500E-003  9.477470792013699E-003 
 9.711564320576399E-003  9.951439959294600E-003  1.019724052628900E-002  1.044911236728900E-002 
 1.070720544276100E-002  1.097167341719700E-002  1.124267375060200E-002  1.152036779224100E-002 
 1.180492087671000E-002  1.209650242236400E-002  1.239528603219700E-002  1.270144959719200E-002 
 1.301517540224300E-002  1.333665023467800E-002  1.366606549547500E-002  1.400361731321300E-002 
 1.434950666084900E-002  1.470393947537200E-002  1.506712678041400E-002  1.543928481189000E-002 
 1.582063514674400E-002  1.621140483486800E-002  1.661182653429000E-002  1.702213864968700E-002 
 1.744258547433400E-002  1.787341733555000E-002  1.831489074373800E-002  1.876726854510800E-002 
 1.923082007817300E-002  1.970582133410300E-002  2.019255512105600E-002  2.069131123254600E-002 
 2.120238661999000E-002  2.172608556950300E-002  2.226271988307000E-002  2.281260906418200E-002 
 2.337608050806700E-002  2.395346969661700E-002  2.454512039812300E-002  2.515138487195700E-002 
 2.577262407829400E-002  2.640920789302800E-002  2.706151532798600E-002  2.772993475658700E-002 
 2.841486414507500E-002  2.911671128945800E-002  2.983589405830800E-002  3.057284064154800E-002 
 3.132798980539400E-002  3.210179115358700E-002  3.289470539508100E-002  3.370720461833900E-002 
 3.453977257241200E-002  3.539290495495100E-002  3.626710970733800E-002  3.716290731710900E-002 
 3.808083112784200E-002  3.902142765670000E-002  3.998525691982000E-002  4.097289276574000E-002 
 4.198492321705400E-002  4.302195082051500E-002  4.408459300578100E-002  4.517348245302400E-002 
 4.628926746961400E-002  4.743261237611300E-002  4.860419790180300E-002  4.980472158997800E-002 
 5.103489821325000E-002  5.229546019911800E-002  5.358715806603600E-002  5.491076087026700E-002 
 5.626705666376300E-002  5.765685296335700E-002  5.908097723155200E-002  6.054027736917200E-002 
 6.203562222019000E-002  6.356790208902900E-002  6.513802927062801E-002  6.674693859361300E-002 
 6.839558797687501E-002  7.008495899990400E-002  7.181605748720100E-002  7.358991410713500E-002 
 7.540758498558101E-002  7.727015233472501E-002  7.917872509739300E-002  8.113443960729801E-002 
 8.313846026559900E-002  8.519198023415900E-002  8.729622214594300E-002  8.945243883294700E-002 
 9.166191407212100E-002  9.392596334970300E-002  9.624593464444001E-002  9.862320923015799E-002 
 1.010592024981400E-001  1.035553647998500E-001  1.061131823104000E-001  1.087341779134700E-001 
 1.114199121079300E-001  1.141719839370000E-001  1.169920319402400E-001  1.198817351291700E-001 
 1.228428139868600E-001  1.258770314923300E-001  1.289861941701900E-001  1.321721531662000E-001 
 1.354368053494000E-001  1.387820944415300E-001  1.422100121742400E-001  1.457225994749400E-001 
 1.493219476819700E-001  1.530101997897200E-001  1.567895517245200E-001  1.606622536521200E-001 
 1.646306113173300E-001  1.686969874168600E-001  1.728638030060600E-001  1.771335389403100E-001 
 1.815087373521400E-001  1.859920031647300E-001  1.905860056429000E-001  1.952934799822800E-001 
 2.001172289378400E-001  2.050601244926100E-001  2.101251095675800E-001  2.153151997739000E-001 
 2.206334852083100E-001  2.260831322929600E-001  2.316673856605900E-001  2.373895700864100E-001 
 2.432530924675400E-001  2.492614438514900E-001  2.554182015146200E-001  2.617270310920400E-001 
 2.681916887600100E-001  2.748160234723800E-001  2.816039792521500E-001  2.885595975396800E-001 
 2.956870195989100E-001  3.029904889830000E-001  3.104743540608800E-001  3.181430706061800E-001 
 3.260012044501600E-001  3.340534342000700E-001  3.423045540248200E-001  3.507594765092300E-001 
 3.594232355790100E-001  3.683009894978100E-001  3.773980239384000E-001  3.867197551296800E-001 
 3.962717330813900E-001  4.060596448885000E-001  4.160893181172400E-001  4.263667242747400E-001 
 4.368979823643200E-001  4.476893625287200E-001  4.587472897831800E-001  4.700783478408300E-001 
 4.816892830325000E-001  4.935870083234000E-001  5.057786074289899E-001  5.182713390324800E-001 
 5.310726411065800E-001  5.441901353419200E-001  5.576316316848600E-001  5.714051329874800E-001 
 5.855188397722700E-001  5.999811551146400E-001  6.148006896459800E-001  6.299862666802299E-001 
 6.455469274672300E-001  6.614919365756700E-001  6.778307874090900E-001  6.945732078581000E-001 
 7.117291660921899E-001  7.293088764946700E-001  7.473228057440900E-001  7.657816790459701E-001 
 7.846964865184000E-001  8.040784897354100E-001  8.239392284318700E-001  8.442905273741400E-001 
 8.651445034002800E-001  8.865135726342700E-001  9.084104578783300E-001  9.308481961879300E-001 
 9.538401466337700E-001  9.773999982556200E-001  1.001541778212500E+000  1.026279860134400E+000 
 1.051628972679700E+000  1.077604208304900E+000  1.104221032250000E+000  1.131495291746600E+000 
 1.159443225452700E+000  1.188081473121400E+000  1.217427085507500E+000  1.247497534519600E+000 
 1.278310723622200E+000  1.309884998495700E+000  1.342239157958500E+000  1.375392465160100E+000 
 1.409364659049500E+000  1.444175966128100E+000  1.479847112491400E+000  1.516399336170000E+000 
 1.553854399773400E+000  1.592234603447800E+000  1.631562798152900E+000  1.671862399267300E+000 
 1.713157400529200E+000  1.755472388322300E+000  1.798832556313800E+000  1.843263720454800E+000 
 1.888792334350000E+000  1.935445505008500E+000  1.983251008982200E+000  2.032237308904000E+000 
 2.082433570433900E+000  2.133869679623700E+000  2.186576260710400E+000  2.240584694349900E+000 
 2.295927136300400E+000  2.352636536567000E+000  2.410746659020200E+000  2.470292101498000E+000 
 2.531308316405000E+000  2.593831631820200E+000  2.657899273126100E+000  2.723549385172400E+000 
 2.790821054986100E+000  2.859754335044300E+000  2.930390267119900E+000  3.002770906717700E+000 
 3.076939348113700E+000  3.152939750012100E+000  3.230817361837400E+000  3.310618550674700E+000 
 3.392390828876400E+000  3.476182882349700E+000  3.562044599543700E+000  3.650027101152400E+000 
 3.740182770550900E+000  3.832565284983500E+000  3.927229647522600E+000  4.024232219816400E+000 
 4.123630755645900E+000  4.225484435310300E+000  4.329853900862500E+000  4.436801292213800E+000 
 4.546390284131500E+000  4.658686124149500E+000  4.773755671416000E+000  4.891667436500000E+000 
 5.012491622181500E+000  5.136300165249400E+000  5.263166779331100E+000  5.393166998780500E+000 
 5.526378223650400E+000  5.662879765774600E+000  5.802752895989200E+000  5.946080892520200E+000 
 6.092949090565400E+000  6.243444933102400E+000  6.397658022950000E+000  6.555680176116900E+000 
 6.717605476466900E+000  6.883530331735700E+000  7.053553530929500E+000  7.227776303143500E+000 
 7.406302377831200E+000  7.589238046563600E+000  7.776692226313700E+000  7.968776524303600E+000 
 8.165605304453900E+000  8.367295755474000E+000  8.573967960634199E+000  8.785744969261801E+000 
 9.002752870002601E+000  9.225120865891700E+000  9.452981351279201E+000  9.686469990655800E+000 
 9.925725799425001E+000  1.017089122667100E+001  1.042211223997000E+001  1.067953841229700E+001 
 1.094332301108100E+001  1.121362308945400E+001  1.149059957976400E+001  1.177441738938400E+001 
 1.206524549890200E+001  1.236325706272500E+001  1.266862951217400E+001  1.298154466112500E+001 
 1.330218881425400E+001  1.363075287796600E+001  1.396743247405200E+001  1.431242805616100E+001 
 1.466594502914800E+001  1.502819387136800E+001  1.539939025999100E+001  1.577975519941300E+001 
 1.616951515283800E+001  1.656890217711400E+001  1.697815406088800E+001  1.739751446619200E+001 
 1.782723307350700E+001  1.826756573042300E+001  1.871877460396400E+001  1.918112833668200E+001 
 1.965490220659800E+001  2.014037829110100E+001  2.063784563489100E+001  2.114760042207300E+001 
 2.166994615249800E+001  2.220519382246500E+001  2.275366210988000E+001  2.331567756399400E+001 
 2.389157479982500E+001  2.448169669738000E+001  2.508639460580600E+001  2.570602855256900E+001 
 2.634096745781700E+001  2.699158935402600E+001  2.765828161107000E+001  2.834144116686300E+001 
 2.904147476368500E+001  2.975879919034800E+001  3.049384153035000E+001  3.124703941614900E+001 
 3.201884128972800E+001  3.280970666958400E+001  3.362010642432300E+001  3.445052305300400E+001 
 3.530145097241300E+001  3.617339681143200E+001  3.706687971267400E+001  3.798243164157700E+001 
 3.892059770312400E+001  3.988193646639100E+001  4.086702029711100E+001  4.187643569845000E+001 
 4.291078366020100E+001  4.397068001660800E+001  4.505675581301900E+001  4.616965768160000E+001 
 4.731004822633600E+001  4.847860641752600E+001  4.967602799603900E+001  5.090302588754100E+001 
 5.216033062696400E+001  5.344869079345000E+001  5.476887345604800E+001  5.612166463041200E+001 
 5.750786974678300E+001  5.892831412952900E+001  6.038384348852800E+001  6.187532442269500E+001 
 6.340364493593500E+001  6.496971496585300E+001  6.657446692551000E+001  6.821885625857000E+001 
 6.990386200815600E+001  7.163048739975800E+001  7.339976043853200E+001  7.521273452136300E+001 
 7.707048906404100E+001
    </PP_R>
    <PP_RAB type="real" size="549" columns="4">
 2.932678704751874E-006  3.005115868759243E-006  3.079342230717596E-006  3.155401983816380E-006 
 3.233340412816439E-006  3.313203921013105E-006  3.395040057862236E-006  3.478897547291407E-006 
 3.564826316709422E-006  3.652877526732209E-006  3.743103601642421E-006  3.835558260602986E-006 
 3.930296549639750E-006  4.027374874415894E-006  4.126851033813983E-006  4.228784254349323E-006 
 4.333235225431708E-006  4.440266135499932E-006  4.549940709046675E-006  4.662324244560082E-006 
 4.777483653400832E-006  4.895487499639831E-006  5.016406040880938E-006  5.140311270090659E-006 
 5.267276958461923E-006  5.397378699335825E-006  5.530693953209416E-006  5.667302093853685E-006 
 5.807284455571992E-006  5.950724381624568E-006  6.097707273850813E-006  6.248320643514755E-006 
 6.402654163409543E-006  6.560799721245867E-006  6.722851474360644E-006  6.888905905777235E-006 
 7.059061881650084E-006  7.233420710126774E-006  7.412086201666974E-006  7.595164730848101E-006 
 7.782765299700090E-006  7.974999602602511E-006  8.171982092786955E-006  8.373830050478833E-006 
 8.580663652725464E-006  8.792606044947765E-006  9.009783414258009E-006  9.232325064590250E-006 
 9.460363493685624E-006  9.694034471979615E-006  9.933477123437681E-006  1.017883400838650E-005 
 1.043025120839364E-005  1.068787841324092E-005  1.095186901004796E-005  1.122238017459607E-005 
 1.149957296490862E-005  1.178361241714190E-005  1.207466764384539E-005  1.237291193464839E-005 
 1.267852285943423E-005  1.299168237406225E-005  1.331257692870163E-005  1.364139757884037E-005 
 1.397834009903779E-005  1.432360509948406E-005  1.467739814544121E-005  1.503992987963358E-005 
 1.541141614766068E-005  1.579207812650779E-005  1.618214245623265E-005  1.658184137490145E-005 
 1.699141285686149E-005  1.741110075442602E-005  1.784115494306037E-005  1.828183147015390E-005 
 1.873339270746685E-005  1.919610750734135E-005  1.967025136277246E-005  2.015610657143303E-005 
 2.065396240374740E-005  2.116411527511998E-005  2.168686892241547E-005  2.222253458479914E-005 
 2.277143118904366E-005  2.333388553941299E-005  2.391023251223656E-005  2.450081525528928E-005 
 2.510598539209498E-005  2.572610323128035E-005  2.636153798109195E-005  2.701266796922426E-005 
 2.767988086806481E-005  2.836357392550494E-005  2.906415420146493E-005  2.978203881024105E-005 
 3.051765516885486E-005  3.127144125152462E-005  3.204384585043894E-005  3.283532884294299E-005 
 3.364636146536367E-005  3.447742659355965E-005  3.532901903042020E-005  3.620164580047201E-005 
 3.709582645174226E-005  3.801209336510050E-005  3.895099207122039E-005  3.991308157537889E-005 
 4.089893469029020E-005  4.190913837714050E-005  4.294429409505540E-005  4.400501815920480E-005 
 4.509194210773579E-005  4.620571307779680E-005  4.734699419081917E-005  4.851646494733170E-005 
 4.971482163153031E-005  5.094277772582966E-005  5.220106433565788E-005  5.349043062474806E-005 
 5.481164426118047E-005  5.616549187443141E-005  5.755277952372905E-005  5.897433317796503E-005 
 6.043099920746206E-005  6.192364488788515E-005  6.345315891661648E-005  6.502045194185720E-005 
 6.662645710481969E-005  6.827213059531061E-005  6.995845222101435E-005  7.168642599087246E-005 
 7.345708071284664E-005  7.527147060645594E-005  7.713067593043460E-005  7.903580362591553E-005 
 8.098798797547606E-005  8.298839127847074E-005  8.503820454304870E-005  8.713864819526078E-005 
 8.929097280568564E-005  9.149645983398502E-005  9.375642239188581E-005  9.607220602496454E-005 
 9.844518951378109E-005  1.008767856947715E-004  1.033684423014314E-004  1.059216428262764E-004 
 1.085379074040863E-004  1.112187937169673E-004  1.139658979217775E-004  1.167808556004436E-004 
 1.196653427337752E-004  1.226210766993007E-004  1.256498172937734E-004  1.287533677809276E-004 
 1.319335759651172E-004  1.351923352914555E-004  1.385315859731557E-004  1.419533161466923E-004 
 1.454595630555156E-004  1.490524142629868E-004  1.527340088952814E-004  1.565065389149950E-004 
 1.603722504261960E-004  1.643334450117219E-004  1.683924811035113E-004  1.725517753867687E-004 
 1.768138042388231E-004  1.811811052035209E-004  1.856562785020469E-004  1.902419885810485E-004 
 1.949409656989994E-004  1.997560075517662E-004  2.046899809382934E-004  2.097458234674710E-004 
 2.149265453071158E-004  2.202352309762014E-004  2.256750411813136E-004  2.312492146984940E-004 
 2.369610703015459E-004  2.428140087379932E-004  2.488115147538173E-004  2.549571591682527E-004 
 2.612546009997077E-004  2.677075896443957E-004  2.743199671086179E-004  2.810956702961796E-004 
 2.880387333525110E-004  2.951532900663000E-004  3.024435763309525E-004  3.099139326663206E-004 
 3.175688068031874E-004  3.254127563312163E-004  3.334504514126084E-004  3.416866775624942E-004 
 3.501263384982790E-004  3.587744590591872E-004  3.676361881979567E-004  3.767168020464407E-004 
 3.860217070569955E-004  3.955564432212892E-004  4.053266873688737E-004  4.153382565468858E-004 
 4.255971114835872E-004  4.361093601372306E-004  4.468812613326181E-004  4.579192284875258E-004 
 4.692298334311880E-004  4.808198103169171E-004  4.926960596317609E-004  5.048656523046634E-004 
 5.173358339165913E-004  5.301140290143128E-004  5.432078455309730E-004  5.566250793155922E-004 
 5.703737187746802E-004  5.844619496284330E-004  5.988981597842445E-004  6.136909443309242E-004 
 6.288491106558897E-004  6.443816836890936E-004  6.602979112762193E-004  6.766072696847357E-004 
 6.933194692459560E-004  7.104444601363226E-004  7.279924383016992E-004  7.459738515277460E-004 
 7.643994056604757E-004  7.832800709802838E-004  8.026270887335065E-004  8.224519778252121E-004 
 8.427665416774954E-004  8.635828752569398E-004  8.849133722757792E-004  9.067707325709849E-004 
 9.291679696654982E-004  9.521184185162432E-004  9.756357434535825E-004  9.997339463168971E-004 
 1.024427374790930E-003  1.049730730948260E-003  1.075659080002664E-003  1.102227859278735E-003 
 1.129452887402928E-003  1.157350373721769E-003  1.185936927952697E-003  1.215229570073139E-003 
 1.245245740453935E-003  1.276003310243165E-003  1.307520592006166E-003  1.339816350628716E-003 
 1.372909814489255E-003  1.406820686907116E-003  1.441569157873724E-003  1.477175916073221E-003 
 1.513662161200216E-003  1.551049616581869E-003  1.589360542111441E-003  1.628617747501606E-003 
 1.668844605864890E-003  1.710065067629757E-003  1.752303674800197E-003  1.795585575567765E-003 
 1.839936539284283E-003  1.885382971804608E-003  1.931951931208189E-003  1.979671143909017E-003 
 2.028569021163587E-003  2.078674675986321E-003  2.130017940483189E-003  2.182629383613105E-003 
 2.236540329388354E-003  2.291782875524261E-003  2.348389912549694E-003  2.406395143389679E-003 
 2.465833103431334E-003  2.526739181086233E-003  2.589149638858909E-003  2.653101634938800E-003 
 2.718633245321722E-003  2.785783486481270E-003  2.854592338597262E-003  2.925100769360763E-003 
 2.997350758363961E-003  3.071385322095418E-003  3.147248539551162E-003  3.224985578478229E-003 
 3.304642722266516E-003  3.386267397506495E-003  3.469908202225008E-003  3.555614934819875E-003 
 3.643438623709900E-003  3.733431557715665E-003  3.825647317191094E-003  3.920140805925820E-003 
 4.016968283832252E-003  4.116187400442712E-003  4.217857229233734E-003  4.322038302795816E-003 
 4.428792648874977E-003  4.538183827301998E-003  4.650276967836387E-003  4.765138808941954E-003 
 4.882837737522763E-003  5.003443829639706E-003  5.127028892231869E-003  5.253666505870015E-003 
 5.383432068564874E-003  5.516402840658543E-003  5.652657990822659E-003  5.792278643196063E-003 
 5.935347925682900E-003  6.081951019447310E-003  6.232175209627615E-003  6.386109937305633E-003 
 6.543846852756999E-003  6.705479870020043E-003  6.871105222809593E-003  7.040821521813036E-003 
 7.214729813401814E-003  7.392933639792766E-003  7.575539100695643E-003  7.762654916482736E-003 
 7.954392492920037E-003  8.150865987494945E-003  8.352192377386271E-003  8.558491529107638E-003 
 8.769886269876646E-003  8.986502460742561E-003  9.208469071522759E-003  9.435918257589408E-003 
 9.668985438552035E-003  9.907809378884261E-003  1.015253227054256E-002  1.040329981762506E-002 
 1.066026132312025E-002  1.092356977780135E-002  1.119338195131306E-002  1.146985848551063E-002 
 1.175316399010278E-002  1.204346714065825E-002  1.234094077903256E-002  1.264576201627451E-002 
 1.295811233807644E-002  1.327817771282711E-002  1.360614870233380E-002  1.394222057528155E-002 
 1.428659342349098E-002  1.463947228105109E-002  1.500106724639325E-002  1.537159360737902E-002 
 1.575127196948125E-002  1.614032838712742E-002  1.653899449828949E-002  1.694750766239737E-002 
 1.736611110165847E-002  1.779505404586950E-002  1.823459188080252E-002  1.868498630025837E-002 
 1.914650546187461E-002  1.961942414678305E-002  2.010402392320848E-002  2.060059331411180E-002 
 2.110942796897033E-002  2.163083083980397E-002  2.216511236154697E-002  2.271259063687731E-002 
 2.327359162560813E-002  2.384844933876055E-002  2.443750603742711E-002  2.504111243655282E-002 
 2.565962791373519E-002  2.629342072320473E-002  2.694286821506712E-002  2.760835705997989E-002 
 2.829028347936040E-002  2.898905348130104E-002  2.970508310228922E-002  3.043879865491734E-002 
 3.119063698169296E-002  3.196104571514155E-002  3.275048354430448E-002  3.355942048784941E-002 
 3.438833817389796E-002  3.523773012679513E-002  3.610810206092541E-002  3.699997218183178E-002 
 3.791387149472306E-002  3.885034412064264E-002  3.980994762042104E-002  4.079325332664601E-002 
 4.180084668381411E-002  4.283332759690502E-002  4.389131078854708E-002  4.497542616502540E-002 
 4.608631919130071E-002  4.722465127532718E-002  4.839110016182752E-002  4.958636033582318E-002 
 5.081114343611732E-002  5.206617867899143E-002  5.335221329236239E-002  5.467001296068259E-002 
 5.602036228081286E-002  5.740406522914845E-002  5.882194564030829E-002  6.027484769762393E-002 
 6.176363643575523E-002  6.328919825571830E-002  6.485244145263311E-002  6.645429675651522E-002 
 6.809571788639973E-002  6.977768211819486E-002  7.150119086651441E-002  7.326727028091581E-002 
 7.507697185685622E-002  7.693137306172036E-002  7.883157797634488E-002  8.077871795235855E-002 
 8.277395228578266E-002  8.481846890724279E-002  8.691348508925076E-002  8.906024817095454E-002 
 9.126003630077799E-002  9.351415919740703E-002  9.582395892958316E-002  9.819081071514367E-002 
 1.006161237398086E-001  1.031013419961805E-001  1.056479451434871E-001  1.082574493885311E-001 
 1.109314083884283E-001  1.136714141756213E-001  1.164790981057593E-001  1.193561318289722E-001 
 1.223042282851466E-001  1.253251427237901E-001  1.284206737490687E-001  1.315926643906688E-001 
 1.348430032011188E-001  1.381736253801873E-001  1.415865139270771E-001  1.450837008210776E-001 
 1.486672682313570E-001  1.523393497566724E-001  1.561021316956615E-001  1.599578543485451E-001 
 1.639088133509521E-001  1.679573610407222E-001  1.721059078584263E-001  1.763569237825305E-001 
 1.807129397999603E-001  1.851765494130186E-001  1.897504101835197E-001  1.944372453150514E-001 
 1.992398452743332E-001  2.041610694526114E-001  2.092038478680907E-001  2.143711829104310E-001 
 2.196661511283194E-001  2.250919050611898E-001  2.306516751162006E-001  2.363487714915708E-001 
 2.421865861474127E-001  2.481685948252587E-001  2.542983591174481E-001  2.605795285876427E-001 
 2.670158429437640E-001  2.736111342644578E-001  2.803693292808018E-001  2.872944517140334E-001 
 2.943906246713753E-001  3.016620731007613E-001  3.091131263063426E-001  3.167482205261166E-001 
 3.245719015730925E-001  3.325888275419460E-001  3.408037715822380E-001  3.492216247403171E-001 
 3.578473988713987E-001  3.666862296235233E-001  3.757433794952295E-001  3.850242409687671E-001 
 3.945343397206834E-001  4.042793379118063E-001  4.142650375582104E-001  4.244973839858998E-001 
 4.349824693703530E-001  4.457265363638099E-001  4.567359818119850E-001  4.680173605627433E-001 
 4.795773893686419E-001  4.914229508860481E-001  5.035610977729288E-001  5.159990568879248E-001 
 5.287442335930516E-001  5.418042161628072E-001  5.551867803020314E-001  5.688998937754907E-001 
 5.829517211517538E-001  5.973506286641855E-001  6.121051891922084E-001  6.272241873652459E-001 
 6.427166247931565E-001  6.585917254255699E-001  6.748589410435706E-001  6.915279568873364E-001 
 7.086086974224654E-001  7.261113322487998E-001  7.440462821553551E-001  7.624242253245765E-001 
 7.812561036900966E-001  8.005531294512351E-001  8.203267917486872E-001  8.405888635048852E-001 
 8.613514084334510E-001  8.826267882217670E-001  9.044276698908357E-001  9.267670333371382E-001 
 9.496581790605666E-001  9.731147360833585E-001  9.971506700646210E-001  1.021780291615226E+000 
 1.047018264818105E+000  1.072879615959113E+000  1.099379742473322E+000  1.126534422112399E+000 
 1.154359822338587E+000  1.182872509950338E+000  1.212089460946114E+000  1.242028070631479E+000 
 1.272706163976094E+000  1.304142006226304E+000  1.336354313780088E+000  1.369362265330447E+000 
 1.403185513284105E+000  1.437844195462233E+000  1.473358947090141E+000  1.509750913083277E+000 
 1.547041760636420E+000  1.585253692124149E+000  1.624409458319626E+000  1.664532371940119E+000 
 1.705646321527023E+000  1.747775785668754E+000  1.790945847574771E+000  1.835182210009850E+000 
 1.880511210597102E+000
    </PP_RAB>
  </PP_MESH>
  <PP_LOCAL type="real" size="549" columns="4">
-2.813844424529800E+000 -2.813844569236400E+000 -2.813844710430200E+000 -2.813844848194800E+000 
-2.813844982611200E+000 -2.813845113759000E+000 -2.813845241715600E+000 -2.813845366556200E+000 
-2.813845488354400E+000 -2.813845607182000E+000 -2.813845723108800E+000 -2.813845836203000E+000 
-2.813845946530600E+000 -2.813846054156800E+000 -2.813846159144200E+000 -2.813846261554200E+000 
-2.813846361446800E+000 -2.813846458880200E+000 -2.813846553911000E+000 -2.813846646594600E+000 
-2.813846736984400E+000 -2.813846825133200E+000 -2.813846911091400E+000 -2.813846994908800E+000 
-2.813847076633600E+000 -2.813847156312600E+000 -2.813847233991200E+000 -2.813847309713600E+000 
-2.813847383522800E+000 -2.813847455460800E+000 -2.813847525567600E+000 -2.813847593883000E+000 
-2.813847660444800E+000 -2.813847725290000E+000 -2.813847788454200E+000 -2.813847849972400E+000 
-2.813847909877600E+000 -2.813847968202600E+000 -2.813848024978600E+000 -2.813848080235600E+000 