<PP_INFO>
Generated using Vanderbilt code, version   7  3  4                              
Author: akohlmey    Generation date:   18    9 2006                              
Automatically converted from original format                                    
    1        The Pseudo was generated with a Scalar-Relativistic Calculation
  1.80000000000E+00    Local Potential cutoff radius
nl pn  l   occ               Rcut            Rcut US             E pseu
3S  3  0  2.00      1.00000000000      1.80000000000     -5.56085153241
3P  3  1  6.00      1.00000000000      1.80000000000     -3.79555184584
4S  4  0  2.00      1.00000000000      1.80000000000     -0.88914698696
3D  3  2  1.00      1.00000000000      1.80000000000     -1.17584960125
</PP_INFO>


<PP_HEADER>
   0                   Version Number
  Ti                   Element
   US                  Ultrasoft pseudopotential
    F                  Nonlinear Core Correction
SLA  PZ   B88  P86     BP   Exchange-Correlation functional
   12.00000000000      Z valence
 -115.54643372794      Total energy
  0.0000000  0.0000000 Suggested cutoff for wfc and rho
    2                  Max angular momentum component
  851                  Number of points in mesh
    4    6             Number of Wavefunctions, Number of Projectors
 Wavefunctions         nl  l   occ
                       3S  0  2.00
                       3P  1  6.00
                       4S  0  2.00
                       3D  2  1.00
</PP_HEADER>


<PP_MESH>
  <PP_R>
  0.00000000000E+00  1.92594586727E-06  3.88481309127E-06  5.87716441663E-06
  7.90357220736E-06  9.96461861118E-06  1.20608957269E-05  1.41930057742E-05
  1.63615612673E-05  1.85671851900E-05  2.08105111754E-05  2.30921836878E-05
  2.54128582075E-05  2.77732014193E-05  3.01738914042E-05  3.26156178339E-05
  3.50990821692E-05  3.76249978614E-05  4.01940905572E-05  4.28070983071E-05
  4.54647717778E-05  4.81678744673E-05  5.09171829249E-05  5.37134869735E-05
  5.65575899374E-05  5.94503088721E-05  6.23924747999E-05  6.53849329480E-05
  6.84285429920E-05  7.15241793019E-05  7.46727311942E-05  7.78751031870E-05
  8.11322152597E-05  8.44450031176E-05  8.78144184605E-05  9.12414292564E-05
  9.47270200190E-05  9.82721920912E-05  1.01877963932E-04  1.05545371411E-04
  1.09275468102E-04  1.13069325590E-04  1.16928033777E-04  1.20852701195E-04
  1.24844455326E-04  1.28904442922E-04  1.33033830341E-04  1.37233803874E-04
  1.41505570093E-04  1.45850356194E-04  1.50269410349E-04  1.54764002069E-04
  1.59335422560E-04  1.63984985106E-04  1.68714025434E-04  1.73523902106E-04
  1.78415996908E-04  1.83391715242E-04  1.88452486538E-04  1.93599764655E-04
  1.98835028309E-04  2.04159781488E-04  2.09575553892E-04  2.15083901367E-04
  2.20686406354E-04  2.26384678345E-04  2.32180354343E-04  2.38075099333E-04
  2.44070606763E-04  2.50168599025E-04  2.56370827953E-04  2.62679075330E-04
  2.69095153392E-04  2.75620905353E-04  2.82258205937E-04  2.89008961912E-04
  2.95875112638E-04  3.02858630628E-04  3.09961522113E-04  3.17185827614E-04
  3.24533622535E-04  3.32007017756E-04  3.39608160239E-04  3.47339233644E-04
  3.55202458959E-04  3.63200095136E-04  3.71334439743E-04  3.79607829618E-04
  3.88022641547E-04  3.96581292942E-04  4.05286242538E-04  4.14139991098E-04
  4.23145082134E-04  4.32304102633E-04  4.41619683806E-04  4.51094501837E-04
  4.60731278660E-04  4.70532782733E-04  4.80501829839E-04  4.90641283893E-04
  5.00954057762E-04  5.11443114109E-04  5.22111466235E-04  5.32962178952E-04
  5.43998369459E-04  5.55223208240E-04  5.66639919976E-04  5.78251784464E-04
  5.90062137571E-04  6.02074372181E-04  6.14291939178E-04  6.26718348431E-04
  6.39357169808E-04  6.52212034198E-04  6.65286634554E-04  6.78584726956E-04
  6.92110131688E-04  7.05866734339E-04  7.19858486912E-04  7.34089408969E-04
  7.48563588777E-04  7.63285184489E-04  7.78258425334E-04  7.93487612835E-04
  8.08977122041E-04  8.24731402790E-04  8.40754980982E-04  8.57052459880E-04
  8.73628521435E-04  8.90487927628E-04  9.07635521841E-04  9.25076230246E-04
  9.42815063221E-04  9.60857116788E-04  9.79207574082E-04  9.97871706832E-04
  1.01685487688E-03  1.03616253774E-03  1.05580023610E-03  1.07577361352E-03
  1.09608840794E-03  1.11675045543E-03  1.13776569178E-03  1.15914015427E-03
  1.18087998336E-03  1.20299142449E-03  1.22548082985E-03  1.24835466020E-03
  1.27161948677E-03  1.29528199307E-03  1.31934897690E-03  1.34382735222E-03
  1.36872415121E-03  1.39404652623E-03  1.41980175192E-03  1.44599722724E-03
  1.47264047765E-03  1.49973915725E-03  1.52730105095E-03  1.55533407676E-03
  1.58384628803E-03  1.61284587575E-03  1.64234117096E-03  1.67234064707E-03
  1.70285292235E-03  1.73388676240E-03  1.76545108264E-03  1.79755495088E-03
  1.83020758994E-03  1.86341838029E-03  1.89719686276E-03  1.93155274124E-03
  1.96649588552E-03  2.00203633408E-03  2.03818429701E-03  2.07495015892E-03
  2.11234448192E-03  2.15037800869E-03  2.18906166552E-03  2.22840656548E-03
  2.26842401158E-03  2.30912550009E-03  2.35052272373E-03  2.39262757514E-03
  2.43545215022E-03  2.47900875165E-03  2.52330989238E-03  2.56836829930E-03
  2.61419691679E-03  2.66080891054E-03  2.70821767127E-03  2.75643681861E-03
  2.80548020497E-03  2.85536191957E-03  2.90609629247E-03  2.95769789867E-03
  3.01018156231E-03  3.06356236094E-03  3.11785562982E-03  3.17307696635E-03
  3.22924223457E-03  3.28636756966E-03  3.34446938264E-03  3.40356436501E-03
  3.46366949364E-03  3.52480203556E-03  3.58697955296E-03  3.65021990825E-03
  3.71454126915E-03  3.77996211395E-03  3.84650123679E-03  3.91417775307E-03
  3.98301110494E-03  4.05302106691E-03  4.12422775146E-03  4.19665161491E-03
  4.27031346323E-03  4.34523445805E-03  4.42143612271E-03  4.49894034847E-03
  4.57776940082E-03  4.65794592579E-03  4.73949295657E-03  4.82243392003E-03
  4.90679264350E-03  4.99259336163E-03  5.07986072328E-03  5.16861979869E-03
  5.25889608662E-03  5.35071552170E-03  5.44410448188E-03  5.53908979600E-03
  5.63569875150E-03  5.73395910227E-03  5.83389907660E-03  5.93554738531E-03
  6.03893323000E-03  6.14408631141E-03  6.25103683801E-03  6.35981553459E-03
  6.47045365117E-03  6.58298297195E-03  6.69743582443E-03  6.81384508868E-03
  6.93224420684E-03  7.05266719269E-03  7.17514864142E-03  7.29972373958E-03
  7.42642827518E-03  7.55529864799E-03  7.68637187997E-03  7.81968562592E-03
  7.95527818430E-03  8.09318850823E-03  8.23345621668E-03  8.37612160585E-03
  8.52122566074E-03  8.66881006694E-03  8.81891722260E-03  8.97159025058E-03
  9.12687301091E-03  9.28481011331E-03  9.44544693006E-03  9.60882960900E-03
  9.77500508682E-03  9.94402110252E-03  1.01159262111E-02  1.02907697976E-02
  1.04686020913E-02  1.06494741798E-02  1.08334380242E-02  1.10205464738E-02
  1.12108532812E-02  1.14044131179E-02  1.16012815898E-02  1.18015152536E-02
  1.20051716324E-02  1.22123092327E-02  1.24229875612E-02  1.26372671418E-02
  1.28552095327E-02  1.30768773446E-02  1.33023342584E-02  1.35316450435E-02
  1.37648755765E-02  1.40020928598E-02  1.42433650416E-02  1.44887614347E-02
  1.47383525365E-02  1.49922100500E-02  1.52504069033E-02  1.55130172715E-02
  1.57801165975E-02  1.60517816136E-02  1.63280903641E-02  1.66091222270E-02
  1.68949579375E-02  1.71856796104E-02  1.74813707647E-02  1.77821163465E-02
  1.80880027544E-02  1.83991178635E-02  1.87155510511E-02  1.90373932226E-02
  1.93647368367E-02  1.96976759331E-02  2.00363061587E-02  2.03807247954E-02
  2.07310307881E-02  2.10873247727E-02  2.14497091058E-02  2.18182878934E-02
  2.21931670209E-02  2.25744541839E-02  2.29622589188E-02  2.33566926345E-02
  2.37578686440E-02  2.41659021975E-02  2.45809105152E-02  2.50030128209E-02
  2.54323303764E-02  2.58689865163E-02  2.63131066836E-02  2.67648184653E-02
  2.72242516294E-02  2.76915381624E-02  2.81668123065E-02  2.86502105987E-02
  2.91418719101E-02  2.96419374855E-02  3.01505509840E-02  3.06678585204E-02
  3.11940087072E-02  3.17291526972E-02  3.22734442268E-02  3.28270396604E-02
  3.33900980354E-02  3.39627811075E-02  3.45452533975E-02  3.51376822384E-02
  3.57402378235E-02  3.63530932554E-02  3.69764245956E-02  3.76104109151E-02
  3.82552343460E-02  3.89110801335E-02  3.95781366894E-02  4.02565956462E-02
  4.09466519120E-02  4.16485037266E-02  4.23623527184E-02  4.30884039625E-02
  4.38268660394E-02  4.45779510948E-02  4.53418749011E-02  4.61188569186E-02
  4.69091203594E-02  4.77128922508E-02  4.85304035010E-02  4.93618889650E-02
  5.02075875126E-02  5.10677420966E-02  5.19425998228E-02  5.28324120208E-02
  5.37374343165E-02  5.46579267054E-02  5.55941536269E-02  5.65463840411E-02
  5.75148915052E-02  5.84999542528E-02  5.95018552733E-02  6.05208823935E-02
  6.15573283601E-02  6.26114909240E-02  6.36836729258E-02  6.47741823825E-02
  6.58833325765E-02  6.70114421451E-02  6.81588351723E-02  6.93258412821E-02
  7.05127957326E-02  7.17200395129E-02  7.29479194408E-02  7.41967882624E-02
  7.54670047535E-02  7.67589338229E-02  7.80729466167E-02  7.94094206253E-02
  8.07687397919E-02  8.21512946225E-02  8.35574822985E-02  8.49877067903E-02
  8.64423789738E-02  8.79219167480E-02  8.94267451557E-02  9.09572965048E-02
  9.25140104932E-02  9.40973343346E-02  9.57077228874E-02  9.73456387851E-02
  9.90115525691E-02  1.00705942824E-01  1.02429296316E-01  1.04182108131E-01
  1.05964881817E-01  1.07778129532E-01  1.09622372185E-01  1.11498139593E-01
  1.13405970627E-01  1.15346413370E-01  1.17320025273E-01  1.19327373318E-01
  1.21369034176E-01  1.23445594376E-01  1.25557650476E-01  1.27705809227E-01
  1.29890687753E-01  1.32112913729E-01  1.34373125557E-01  1.36671972551E-01
  1.39010115126E-01  1.41388224986E-01  1.43806985314E-01  1.46267090975E-01
  1.48769248709E-01  1.51314177337E-01  1.53902607969E-01  1.56535284209E-01
  1.59212962376E-01  1.61936411714E-01  1.64706414617E-01  1.67523766854E-01
  1.70389277796E-01  1.73303770648E-01  1.76268082688E-01  1.79283065506E-01
  1.82349585246E-01  1.85468522863E-01  1.88640774364E-01  1.91867251078E-01
  1.95148879909E-01  1.98486603604E-01  2.01881381028E-01  2.05334187434E-01
  2.08846014747E-01  2.12417871847E-01  2.16050784859E-01  2.19745797448E-01
  2.23503971121E-01  2.27326385528E-01  2.31214138775E-01  2.35168347738E-01
  2.39190148384E-01  2.43280696100E-01  2.47441166019E-01  2.51672753366E-01
  2.55976673793E-01  2.60354163733E-01  2.64806480754E-01  2.69334903921E-01
  2.73940734162E-01  2.78625294643E-01  2.83389931147E-01  2.88236012463E-01
  2.93164930776E-01  2.98178102068E-01  3.03276966528E-01  3.08462988959E-01
  3.13737659206E-01  3.19102492579E-01  3.24559030292E-01  3.30108839902E-01
  3.35753515762E-01  3.41494679477E-01  3.47333980374E-01  3.53273095970E-01
  3.59313732459E-01  3.65457625198E-01  3.71706539209E-01  3.78062269684E-01
  3.84526642502E-01  3.91101514750E-01  3.97788775264E-01  4.04590345164E-01
  4.11508178409E-01  4.18544262358E-01  4.25700618343E-01  4.32979302246E-01
  4.40382405092E-01  4.47912053649E-01  4.55570411040E-01  4.63359677362E-01
  4.71282090322E-01  4.79339925874E-01  4.87535498879E-01  4.95871163767E-01
  5.04349315213E-01  5.12972388826E-01  5.21742861847E-01  5.30663253865E-01
  5.39736127535E-01  5.48964089318E-01  5.58349790229E-01  5.67895926598E-01
  5.77605240846E-01  5.87480522271E-01  5.97524607849E-01  6.07740383053E-01
  6.18130782676E-01  6.28698791680E-01  6.39447446049E-01  6.50379833664E-01
  6.61499095187E-01  6.72808424968E-01  6.84311071958E-01  6.96010340645E-01
  7.07909592003E-01  7.20012244456E-01  7.32321774862E-01  7.44841719511E-01
  7.57575675141E-01  7.70527299970E-01  7.83700314751E-01  7.97098503834E-01
  8.10725716262E-01  8.24585866867E-01  8.38682937404E-01  8.53020977688E-01
  8.67604106759E-01  8.82436514070E-01  8.97522460684E-01  9.12866280501E-01
  9.28472381503E-01  9.44345247022E-01  9.60489437025E-01  9.76909589424E-01
  9.93610421413E-01  1.01059673082E+00  1.02787339747E+00  1.04544538464E+00
  1.06331774039E+00  1.08149559913E+00  1.09998418299E+00  1.11878880340E+00
  1.13791486254E+00  1.15736785497E+00  1.17715336916E+00  1.19727708910E+00
  1.21774479595E+00  1.23856236968E+00  1.25973579078E+00  1.28127114196E+00
  1.30317460992E+00  1.32545248710E+00  1.34811117349E+00  1.37115717850E+00
  1.39459712281E+00  1.41843774025E+00  1.44268587978E+00  1.46734850741E+00
  1.49243270823E+00  1.51794568847E+00  1.54389477749E+00  1.57028742998E+00
  1.59713122803E+00  1.62443388334E+00  1.65220323944E+00  1.68044727392E+00
  1.70917410076E+00  1.73839197261E+00  1.76810928321E+00  1.79833456975E+00
  1.82907651539E+00  1.86034395168E+00  1.89214586116E+00  1.92449137990E+00
  1.95738980014E+00  1.99085057296E+00  2.02488331099E+00  2.05949779118E+00
  2.09470395760E+00  2.13051192431E+00  2.16693197823E+00  2.20397458214E+00
  2.24165037767E+00  2.27997018835E+00  2.31894502271E+00  2.35858607747E+00
  2.39890474073E+00  2.43991259528E+00  2.48162142186E+00  2.52404320263E+00
  2.56719012454E+00  2.61107458286E+00  2.65570918474E+00  2.70110675286E+00
  2.74728032904E+00  2.79424317807E+00  2.84200879146E+00  2.89059089135E+00
  2.94000343444E+00  2.99026061599E+00  3.04137687392E+00  3.09336689294E+00
  3.14624560877E+00  3.20002821246E+00  3.25473015469E+00  3.31036715029E+00
  3.36695518267E+00  3.42451050850E+00  3.48304966229E+00  3.54258946123E+00
  3.60314700993E+00  3.66473970540E+00  3.72738524205E+00  3.79110161672E+00
  3.85590713389E+00  3.92182041094E+00  3.98886038346E+00  4.05704631076E+00
  4.12639778132E+00  4.19693471848E+00  4.26867738614E+00  4.34164639457E+00
  4.41586270637E+00  4.49134764245E+00  4.56812288816E+00  4.64621049954E+00
  4.72563290966E+00  4.80641293504E+00  4.88857378222E+00  4.97213905441E+00
  5.05713275830E+00  5.14357931095E+00  5.23150354677E+00  5.32093072469E+00
  5.41188653541E+00  5.50439710878E+00  5.59848902129E+00  5.69418930372E+00
  5.79152544893E+00  5.89052541969E+00  5.99121765679E+00  6.09363108715E+00
  6.19779513218E+00  6.30373971619E+00  6.41149527499E+00  6.52109276470E+00
  6.63256367053E+00  6.74594001593E+00  6.86125437172E+00  6.97853986549E+00
  7.09783019109E+00  7.21915961833E+00  7.34256300279E+00  7.46807579589E+00
  7.59573405502E+00  7.72557445392E+00  7.85763429324E+00  7.99195151121E+00
  8.12856469457E+00  8.26751308963E+00  8.40883661359E+00  8.55257586596E+00
  8.69877214024E+00  8.84746743580E+00  8.99870446992E+00  9.15252669006E+00
  9.30897828638E+00  9.46810420440E+00  9.62995015790E+00  9.79456264211E+00
  9.96198894700E+00  1.01322771709E+01  1.03054762343E+01  1.04816358941E+01
  1.06608067573E+01  1.08430402964E+01  1.10283888635E+01  1.12169057057E+01
  1.14086449802E+01  1.16036617701E+01  1.18020120997E+01  1.20037529515E+01
  1.22089422815E+01  1.24176390368E+01  1.26299031719E+01  1.28457956661E+01
  1.30653785412E+01  1.32887148790E+01  1.35158688399E+01  1.37469056808E+01
  1.39818917740E+01  1.42208946265E+01  1.44639828992E+01  1.47112264267E+01
  1.49626962372E+01  1.52184645732E+01  1.54786049119E+01  1.57431919866E+01
  1.60123018082E+01  1.62860116866E+01  1.65644002533E+01  1.68475474841E+01
  1.71355347216E+01  1.74284446990E+01  1.77263615637E+01  1.80293709015E+01
  1.83375597609E+01  1.86510166788E+01  1.89698317053E+01  1.92940964297E+01
  1.96239040070E+01  1.99593491846E+01  2.03005283293E+01  2.06475394553E+01
  2.10004822523E+01  2.13594581138E+01  2.17245701666E+01  2.20959233005E+01
  2.24736241979E+01  2.28577813650E+01  2.32485051627E+01  2.36459078385E+01
  2.40501035584E+01  2.44612084400E+01  2.48793405858E+01  2.53046201172E+01
  2.57371692085E+01  2.61771121230E+01  2.66245752475E+01  2.70796871297E+01
  2.75425785144E+01  2.80133823812E+01  2.84922339831E+01  2.89792708848E+01
  2.94746330027E+01  2.99784626446E+01  3.04909045511E+01  3.10121059369E+01
  3.15422165329E+01  3.20813886297E+01  3.26297771211E+01  3.31875395483E+01
  3.37548361459E+01  3.43318298870E+01  3.49186865309E+01  3.55155746701E+01
  3.61226657790E+01  3.67401342632E+01  3.73681575093E+01  3.80069159364E+01
  3.86565930473E+01  3.93173754817E+01  3.99894530697E+01  4.06730188860E+01
  4.13682693060E+01  4.20754040616E+01  4.27946262990E+01  4.35261426368E+01
  4.42701632254E+01  4.50269018077E+01  4.57965757799E+01  4.65794062544E+01
  4.73756181235E+01  4.81854401232E+01  4.90091048998E+01  4.98468490762E+01
  5.06989133202E+01  5.15655424132E+01  5.24469853212E+01  5.33434952654E+01
  5.42553297960E+01  5.51827508654E+01  5.61260249036E+01  5.70854228950E+01
  5.80612204561E+01  5.90536979148E+01  6.00631403904E+01  6.10898378764E+01
  6.21340853230E+01  6.31961827224E+01  6.42764351946E+01  6.53751530751E+01
  6.64926520044E+01  6.76292530183E+01  6.87852826403E+01  6.99610729753E+01
  7.11569618051E+01  7.23732926855E+01  7.36104150448E+01  7.48686842842E+01
  7.61484618803E+01  7.74501154882E+01  7.87740190480E+01  8.01205528915E+01
  8.14901038518E+01  8.28830653744E+01  8.42998376302E+01  8.57408276304E+01
  8.72064493436E+01  8.86971238146E+01  9.02132792853E+01  9.17553513177E+01
  9.33237829194E+01  9.49190246704E+01  9.65415348528E+01  9.81917795824E+01
  9.98702329426E+01  1.01577377120E+02  1.03313702545E+02  1.05079708030E+02
  1.06875900914E+02  1.08702797209E+02  1.10560921746E+02  1.12450808329E+02
  1.14372999886E+02  1.16328048624E+02  1.18316516192E+02  1.20338973838E+02
  1.22396002575E+02  1.24488193348E+02  1.26616147202E+02  1.28780475457E+02
  1.30981799883E+02  1.33220752878E+02  1.35497977650E+02  1.37814128401E+02
  1.40169870516E+02  1.42565880756E+02  1.45002847446E+02  1.47481470681E+02
  1.50002462522E+02  1.52566547199E+02  1.55174461325E+02  1.57826954104E+02
  1.60524787545E+02  1.63268736683E+02  1.66059589803E+02  1.68898148661E+02
  1.71785228722E+02  1.74721659387E+02  1.77708284236E+02  1.80745961269E+02
  1.83835563152E+02  1.86977977466E+02  1.90174106968E+02  1.93424869843E+02
  1.96731199973E+02  2.00094047201E+02  2.03514377610E+02
  </PP_R>
  <PP_RAB>
  1.90967039805E-06  1.94231354834E-06  1.97551468773E-06  2.00928335426E-06
  2.04362924902E-06  2.07856223892E-06  2.11409235952E-06  2.15022981795E-06
  2.18698499580E-06  2.22436845212E-06  2.26239092645E-06  2.30106334191E-06
  2.34039680834E-06  2.38040262549E-06  2.42109228625E-06  2.46247747998E-06
  2.50457009583E-06  2.54738222621E-06  2.59092617020E-06  2.63521443715E-06
  2.68025975021E-06  2.72607505004E-06  2.77267349847E-06  2.82006848235E-06
  2.86827361733E-06  2.91730275181E-06  2.96716997093E-06  3.01788960056E-06
  3.06947621147E-06  3.12194462350E-06  3.17530990981E-06  3.22958740122E-06
  3.28479269058E-06  3.34094163733E-06  3.39805037196E-06  3.45613530070E-06
  3.51521311024E-06  3.57530077248E-06  3.63641554944E-06  3.69857499823E-06
  3.76179697604E-06  3.82609964533E-06  3.89150147901E-06  3.95802126577E-06
  4.02567811544E-06  4.09449146453E-06  4.16448108179E-06  4.23566707387E-06
  4.30806989115E-06  4.38171033353E-06  4.45660955651E-06  4.53278907718E-06
  4.61027078043E-06  4.68907692526E-06  4.76923015116E-06  4.85075348459E-06
  4.93367034564E-06  5.01800455470E-06  5.10378033936E-06  5.19102234136E-06
  5.27975562362E-06  5.37000567751E-06  5.46179843012E-06  5.55516025172E-06
  5.65011796337E-06  5.74669884457E-06  5.84493064114E-06  5.94484157319E-06
  6.04646034318E-06  6.14981614423E-06  6.25493866845E-06  6.36185811551E-06
  6.47060520130E-06  6.58121116675E-06  6.69370778681E-06  6.80812737960E-06
  6.92450281564E-06  7.04286752734E-06  7.16325551860E-06  7.28570137456E-06
  7.41024027153E-06  7.53690798714E-06  7.66574091057E-06  7.79677605302E-06
  7.93005105836E-06  8.06560421392E-06  8.20347446149E-06  8.34370140853E-06
  8.48632533953E-06  8.63138722757E-06  8.77892874615E-06  8.92899228107E-06
  9.08162094269E-06  9.23685857828E-06  9.39474978459E-06  9.55533992071E-06
  9.71867512110E-06  9.88480230878E-06  1.00537692089E-05  1.02256243623E-05
  1.04004171398E-05  1.05781977558E-05  1.07590172834E-05  1.09429276684E-05
  1.11299817448E-05  1.13202332496E-05  1.15137368383E-05  1.17105481008E-05
  1.19107235772E-05  1.21143207740E-05  1.23213981807E-05  1.25320152867E-05
  1.27462325982E-05  1.29641116556E-05  1.31857150515E-05  1.34111064481E-05
  1.36403505962E-05  1.38735133529E-05  1.41106617016E-05  1.43518637704E-05
  1.45971888519E-05  1.48467074233E-05  1.51004911664E-05  1.53586129885E-05
  1.56211470428E-05  1.58881687504E-05  1.61597548215E-05  1.64359832774E-05
  1.67169334732E-05  1.70026861206E-05  1.72933233106E-05  1.75889285378E-05
  1.78895867238E-05  1.81953842419E-05  1.85064089418E-05  1.88227501749E-05
  1.91444988198E-05  1.94717473088E-05  1.98045896540E-05  2.01431214746E-05
  2.04874400242E-05  2.08376442189E-05  2.11938346655E-05  2.15561136907E-05
  2.19245853702E-05  2.22993555589E-05  2.26805319209E-05  2.30682239608E-05
  2.34625430551E-05  2.38636024840E-05  2.42715174641E-05  2.46864051815E-05
  2.51083848254E-05  2.55375776224E-05  2.59741068712E-05  2.64180979784E-05
  2.68696784939E-05  2.73289781480E-05  2.77961288888E-05  2.82712649195E-05
  2.87545227375E-05  2.92460411735E-05  2.97459614312E-05  3.02544271280E-05
  3.07715843363E-05  3.12975816252E-05  3.18325701038E-05  3.23767034638E-05
  3.29301380241E-05  3.34930327759E-05  3.40655494278E-05  3.46478524530E-05
  3.52401091356E-05  3.58424896197E-05  3.64551669575E-05  3.70783171593E-05
  3.77121192442E-05  3.83567552911E-05  3.90124104916E-05  3.96792732027E-05
  4.03575350012E-05  4.10473907385E-05  4.17490385969E-05  4.24626801462E-05
  4.31885204018E-05  4.39267678836E-05  4.46776346757E-05  4.54413364878E-05
  4.62180927165E-05  4.70081265089E-05  4.78116648264E-05  4.86289385100E-05
  4.94601823466E-05  5.03056351365E-05  5.11655397620E-05  5.20401432569E-05
  5.29296968779E-05  5.38344561767E-05  5.47546810729E-05  5.56906359295E-05
  5.66425896281E-05  5.76108156466E-05  5.85955921376E-05  5.95972020084E-05
  6.06159330021E-05  6.16520777803E-05  6.27059340075E-05  6.37778044361E-05
  6.48679969938E-05  6.59768248718E-05  6.71046066148E-05  6.82516662128E-05
  6.94183331937E-05  7.06049427185E-05  7.18118356771E-05  7.30393587864E-05
  7.42878646901E-05  7.55577120598E-05  7.68492656981E-05  7.81628966434E-05
  7.94989822763E-05  8.08579064284E-05  8.22400594925E-05  8.36458385341E-05
  8.50756474066E-05  8.65298968663E-05  8.80090046909E-05  8.95133957996E-05
  9.10435023746E-05  9.25997639862E-05  9.41826277180E-05  9.57925482963E-05
  9.74299882201E-05  9.90954178941E-05  1.00789315764E-04  1.02512168454E-04
  1.04264470906E-04  1.06046726524E-04  1.07859447313E-04  1.09703154035E-04
  1.11578376350E-04  1.13485652974E-04  1.15425531829E-04  1.17398570206E-04
  1.19405334921E-04  1.21446402478E-04  1.23522359236E-04  1.25633801577E-04
  1.27781336079E-04  1.29965579686E-04  1.32187159889E-04  1.34446714905E-04
  1.36744893861E-04  1.39082356978E-04  1.41459775766E-04  1.43877833209E-04
  1.46337223970E-04  1.48838654584E-04  1.51382843662E-04  1.53970522103E-04
  1.56602433295E-04  1.59279333336E-04  1.62001991247E-04  1.64771189195E-04
  1.67587722717E-04  1.70452400949E-04  1.73366046858E-04  1.76329497477E-04
  1.79343604148E-04  1.82409232767E-04  1.85527264028E-04  1.88698593682E-04
  1.91924132791E-04  1.95204807989E-04  1.98541561751E-04  2.01935352662E-04
  2.05387155692E-04  2.08897962478E-04  2.12468781605E-04  2.16100638903E-04
  2.19794577732E-04  2.23551659290E-04  2.27372962914E-04  2.31259586390E-04
  2.35212646270E-04  2.39233278192E-04  2.43322637206E-04  2.47481898104E-04
  2.51712255763E-04  2.56014925482E-04  2.60391143336E-04  2.64842166526E-04
  2.69369273745E-04  2.73973765544E-04  2.78656964705E-04  2.83420216619E-04
  2.88264889677E-04  2.93192375660E-04  2.98204090138E-04  3.03301472882E-04
  3.08485988269E-04  3.13759125711E-04  3.19122400079E-04  3.24577352136E-04
  3.30125548987E-04  3.35768584519E-04  3.41508079868E-04  3.47345683880E-04
  3.53283073586E-04  3.59321954682E-04  3.65464062023E-04  3.71711160116E-04
  3.78065043633E-04  3.84527537921E-04  3.91100499530E-04  3.97785816745E-04
  4.04585410127E-04  4.11501233068E-04  4.18535272350E-04  4.25689548718E-04
  4.32966117455E-04  4.40367068980E-04  4.47894529442E-04  4.55550661335E-04
  4.63337664117E-04  4.71257774845E-04  4.79313268812E-04  4.87506460207E-04
  4.95839702773E-04  5.04315390492E-04  5.12935958263E-04  5.21703882609E-04
  5.30621682385E-04  5.39691919503E-04  5.48917199665E-04  5.58300173117E-04
  5.67843535405E-04  5.77550028153E-04  5.87422439847E-04  5.97463606642E-04
  6.07676413169E-04  6.18063793371E-04  6.28628731340E-04  6.39374262180E-04
  6.50303472872E-04  6.61419503169E-04  6.72725546489E-04  6.84224850842E-04
  6.95920719753E-04  7.07816513221E-04  7.19915648676E-04  7.32221601966E-04
  7.44737908354E-04  7.57468163531E-04  7.70416024653E-04  7.83585211392E-04
  7.96979506998E-04  8.10602759395E-04  8.24458882279E-04  8.38551856245E-04
  8.52885729933E-04  8.67464621188E-04  8.82292718242E-04  8.97374280920E-04
  9.12713641865E-04  9.28315207777E-04  9.44183460685E-04  9.60322959230E-04
  9.76738339978E-04  9.93434318751E-04  1.01041569198E-03  1.02768733808E-03
  1.04525421887E-03  1.06312138097E-03  1.08129395728E-03  1.09977716841E-03
  1.11857632424E-03  1.13769682540E-03  1.15714416484E-03  1.17692392942E-03
  1.19704180146E-03  1.21750356045E-03  1.23831508465E-03  1.25948235281E-03
  1.28101144588E-03  1.30290854875E-03  1.32517995204E-03  1.34783205388E-03
  1.37087136179E-03  1.39430449451E-03  1.41813818393E-03  1.44237927701E-03
  1.46703473775E-03  1.49211164918E-03  1.51761721541E-03  1.54355876370E-03
  1.56994374655E-03  1.59677974387E-03  1.62407446510E-03  1.65183575150E-03
  1.68007157835E-03  1.70879005725E-03  1.73799943847E-03  1.76770811329E-03
  1.79792461645E-03  1.82865762856E-03  1.85991597862E-03  1.89170864655E-03
  1.92404476577E-03  1.95693362582E-03  1.99038467503E-03  2.02440752324E-03
  2.05901194456E-03  2.09420788017E-03  2.13000544118E-03  2.16641491153E-03
  2.20344675096E-03  2.24111159801E-03  2.27942027305E-03  2.31838378143E-03
  2.35801331661E-03  2.39832026338E-03  2.43931620115E-03  2.48101290727E-03
  2.52342236038E-03  2.56655674391E-03  2.61042844953E-03  2.65505008072E-03
  2.70043445643E-03  2.74659461470E-03  2.79354381645E-03  2.84129554929E-03
  2.88986353135E-03  2.93926171529E-03  2.98950429223E-03  3.04060569592E-03
  3.09258060678E-03  3.14544395620E-03  3.19921093081E-03  3.25389697681E-03
  3.30951780445E-03  3.36608939251E-03  3.42362799291E-03  3.48215013539E-03
  3.54167263222E-03  3.60221258306E-03  3.66378737987E-03  3.72641471190E-03
  3.79011257076E-03  3.85489925563E-03  3.92079337845E-03  3.98781386934E-03
  4.05597998199E-03  4.12531129920E-03  4.19582773852E-03  4.26754955796E-03
  4.34049736180E-03  4.41469210655E-03  4.49015510690E-03  4.56690804193E-03
  4.64497296127E-03  4.72437229146E-03  4.80512884238E-03  4.88726581384E-03
  4.97080680219E-03  5.05577580715E-03  5.14219723867E-03  5.23009592394E-03
  5.31949711457E-03  5.41042649378E-03  5.50291018383E-03  5.59697475348E-03
  5.69264722568E-03  5.78995508527E-03  5.88892628691E-03  5.98958926312E-03
  6.09197293242E-03  6.19610670766E-03  6.30202050446E-03  6.40974474979E-03
  6.51931039076E-03  6.63074890346E-03  6.74409230200E-03  6.85937314775E-03
  6.97662455868E-03  7.09588021884E-03  7.21717438807E-03  7.34054191185E-03
  7.46601823128E-03  7.59363939326E-03  7.72344206090E-03  7.85546352399E-03
  7.98974170975E-03  8.12631519368E-03  8.26522321072E-03  8.40650566645E-03
  8.55020314859E-03  8.69635693863E-03  8.84500902374E-03  8.99620210879E-03
  9.14997962862E-03  9.30638576053E-03  9.46546543699E-03  9.62726435851E-03
  9.79182900677E-03  9.95920665804E-03  1.01294453967E-02  1.03025941289E-02
  1.04787025971E-02  1.06578213938E-02  1.08400019763E-02  1.10252966816E-02
  1.12137587414E-02  1.14054422970E-02  1.16004024155E-02  1.17986951051E-02
  1.20003773315E-02  1.22055070341E-02  1.24141431426E-02  1.26263455943E-02
  1.28421753507E-02  1.30616944157E-02  1.32849658526E-02  1.35120538032E-02
  1.37430235053E-02  1.39779413122E-02  1.42168747111E-02  1.44598923431E-02
  1.47070640223E-02  1.49584607563E-02  1.52141547667E-02  1.54742195094E-02
  1.57387296959E-02  1.60077613148E-02  1.62813916539E-02  1.65596993217E-02
  1.68427642706E-02  1.71306678198E-02  1.74234926784E-02  1.77213229693E-02
  1.80242442533E-02  1.83323435540E-02  1.86457093822E-02  1.89644317618E-02
  1.92886022558E-02  1.96183139919E-02  1.99536616900E-02  2.02947416890E-02
  2.06416519746E-02  2.09944922073E-02  2.13533637514E-02  2.17183697037E-02
  2.20896149233E-02  2.24672060619E-02  2.28512515940E-02  2.32418618484E-02
  2.36391490401E-02  2.40432273018E-02  2.44542127175E-02  2.48722233552E-02
  2.52973793015E-02  2.57298026953E-02  2.61696177635E-02  2.66169508565E-02
  2.70719304844E-02  2.75346873541E-02  2.80053544066E-02  2.84840668555E-02
  2.89709622257E-02  2.94661803927E-02  2.99698636231E-02  3.04821566154E-02
  3.10032065414E-02  3.15331630887E-02  3.20721785036E-02  3.26204076348E-02
  3.31780079778E-02  3.37451397205E-02  3.43219657889E-02  3.49086518938E-02
  3.55053665790E-02  3.61122812689E-02  3.67295703184E-02  3.73574110627E-02
  3.79959838683E-02  3.86454721848E-02  3.93060625976E-02  3.99779448817E-02
  4.06613120557E-02  4.13563604378E-02  4.20632897020E-02  4.27823029353E-02
  4.35136066964E-02  4.42574110747E-02  4.50139297508E-02  4.57833800578E-02
  4.65659830440E-02  4.73619635361E-02  4.81715502037E-02  4.89949756256E-02
  4.98324763558E-02  5.06842929923E-02  5.15506702453E-02  5.24318570083E-02
  5.33281064292E-02  5.42396759832E-02  5.51668275465E-02  5.61098274719E-02
  5.70689466649E-02  5.80444606619E-02  5.90366497093E-02  6.00457988437E-02
  6.10721979742E-02  6.21161419654E-02  6.31779307222E-02  6.42578692759E-02
  6.53562678720E-02  6.64734420592E-02  6.76097127799E-02  6.87654064629E-02
  6.99408551164E-02  7.11363964242E-02  7.23523738422E-02  7.35891366971E-02
  7.48470402869E-02  7.61264459831E-02  7.74277213340E-02  7.87512401711E-02