<PP_INFO>
Generated using Vanderbilt code, version   7  0  0                              
Author: unknown    Generation date:    0    0    0                              
Automatically converted from original format                                    
    1        The Pseudo was generated with a Scalar-Relativistic Calculation
  1.80000000000E+00    Local Potential cutoff radius
nl pn  l   occ               Rcut            Rcut US             E pseu
3S  3  0  2.00     10.00000000000      1.80000000000     -4.60399178600
3P  3  1  6.00     10.00000000000      1.80000000000     -2.85456905400
3D  3  2  2.00     10.00000000000      2.00000000000     -0.31756663400
4S  4  0  2.00     10.00000000000      1.80000000000     -0.33129598600
4P  4  1  0.00     10.00000000000      1.80000000000     -0.11046090200
</PP_INFO>


<PP_HEADER>
   0                   Version Number
  Ti                   Element
   US                  Ultrasoft pseudopotential
    T                  Nonlinear Core Correction
 SLA  PW   GGX  GGC    PW91 Exchange-Correlation functional
   12.00000000000      Z valence
 -116.60546171300      Total energy
  0.0000000  0.0000000 Suggested cutoff for wfc and rho
    2                  Max angular momentum component
  925                  Number of points in mesh
    5    6             Number of Wavefunctions, Number of Projectors
 Wavefunctions         nl  l   occ
                       3S  0  2.00
                       3P  1  6.00
                       3D  2  2.00
                       4S  0  2.00
                       4P  1  0.00
</PP_HEADER>


<PP_MESH>
  <PP_R>
  0.00000000000E+00  6.96608617563E-07  1.40492466970E-06  2.12514491543E-06
  2.85746942056E-06  3.60210161328E-06  4.35924834064E-06  5.12911992605E-06
  5.91193022768E-06  6.70789669787E-06  7.51724044353E-06  8.34018628758E-06
  9.17696283138E-06  1.00278025182E-05  1.08929416980E-05  1.17726206926E-05
  1.26670838630E-05  1.35765796770E-05  1.45013607781E-05  1.54416840560E-05
  1.63978107175E-05  1.73700063596E-05  1.83585410429E-05  1.93636893666E-05
  2.03857305452E-05  2.14249484854E-05  2.24816318657E-05  2.35560742161E-05
  2.46485739995E-05  2.57594346953E-05  2.68889648829E-05  2.80374783280E-05
  2.92052940695E-05  3.03927365083E-05  3.16001354969E-05  3.28278264319E-05
  3.40761503463E-05  3.53454540049E-05  3.66360900001E-05  3.79484168503E-05
  3.92827990991E-05  4.06396074168E-05  4.20192187034E-05  4.34220161930E-05
  4.48483895608E-05  4.62987350306E-05  4.77734554856E-05  4.92729605797E-05
  5.07976668519E-05  5.23479978414E-05  5.39243842057E-05  5.55272638401E-05
  5.71570819993E-05  5.88142914208E-05  6.04993524514E-05  6.22127331744E-05
  6.39549095400E-05  6.57263654971E-05  6.75275931283E-05  6.93590927861E-05
  7.12213732324E-05  7.31149517790E-05  7.50403544324E-05  7.69981160388E-05
  7.89887804336E-05  8.10129005920E-05  8.30710387824E-05  8.51637667233E-05
  8.72916657414E-05  8.94553269334E-05  9.16553513302E-05  9.38923500639E-05
  9.61669445373E-05  9.84797665970E-05  1.00831458708E-04  1.03222674134E-04
  1.05654077117E-04  1.08126343061E-04  1.10640158723E-04  1.13196222403E-04
  1.15795244132E-04  1.18437945880E-04  1.21125061746E-04  1.23857338170E-04
  1.26635534133E-04  1.29460421376E-04  1.32332784607E-04  1.35253421724E-04
  1.38223144033E-04  1.41242776476E-04  1.44313157860E-04  1.47435141087E-04
  1.50609593396E-04  1.53837396600E-04  1.57119447330E-04  1.60456657290E-04
  1.63849953503E-04  1.67300278573E-04  1.70808590946E-04  1.74375865175E-04
  1.78003092194E-04  1.81691279589E-04  1.85441451880E-04  1.89254650805E-04
  1.93131935611E-04  1.97074383347E-04  2.01083089161E-04  2.05159166611E-04
  2.09303747964E-04  2.13517984521E-04  2.17803046930E-04  2.22160125513E-04
  2.26590430599E-04  2.31095192855E-04  2.35675663635E-04  2.40333115319E-04
  2.45068841676E-04  2.49884158214E-04  2.54780402553E-04  2.59758934791E-04
  2.64821137888E-04  2.69968418042E-04  2.75202205087E-04  2.80523952886E-04
  2.85935139737E-04  2.91437268782E-04  2.97031868426E-04  3.02720492759E-04
  3.08504721993E-04  3.14386162894E-04  3.20366449234E-04  3.26447242242E-04
  3.32630231067E-04  3.38917133244E-04  3.45309695176E-04  3.51809692617E-04
  3.58418931161E-04  3.65139246753E-04  3.71972506188E-04  3.78920607639E-04
  3.85985481179E-04  3.93169089318E-04  4.00473427548E-04  4.07900524900E-04
  4.15452444504E-04  4.23131284163E-04  4.30939176939E-04  4.38878291741E-04
  4.46950833929E-04  4.55159045928E-04  4.63505207849E-04  4.71991638126E-04
  4.80620694153E-04  4.89394772947E-04  4.98316311808E-04  5.07387788999E-04
  5.16611724432E-04  5.25990680372E-04  5.35527262144E-04  5.45224118860E-04
  5.55083944154E-04  5.65109476929E-04  5.75303502120E-04  5.85668851467E-04
  5.96208404299E-04  6.06925088338E-04  6.17821880510E-04  6.28901807772E-04
  6.40167947951E-04  6.51623430605E-04  6.63271437884E-04  6.75115205423E-04
  6.87158023231E-04  6.99403236615E-04  7.11854247100E-04  7.24514513381E-04
  7.37387552281E-04  7.50476939724E-04  7.63786311738E-04  7.77319365455E-04
  7.91079860145E-04  8.05071618254E-04  8.19298526472E-04  8.33764536811E-04
  8.48473667698E-04  8.63430005099E-04  8.78637703648E-04  8.94100987803E-04
  9.09824153020E-04  9.25811566946E-04  9.42067670634E-04  9.58596979770E-04
  9.75404085937E-04  9.92493657883E-04  1.00987044282E-03  1.02753926775E-03
  1.04550504078E-03  1.06377275254E-03  1.08234747749E-03  1.10123437541E-03
  1.12043869277E-03  1.13996576424E-03  1.15982101412E-03  1.18000995789E-03
  1.20053820372E-03  1.22141145403E-03  1.24263550708E-03  1.26421625858E-03
  1.28615970332E-03  1.30847193684E-03  1.33115915713E-03  1.35422766633E-03
  1.37768387253E-03  1.40153429148E-03  1.42578554845E-03  1.45044438005E-03
  1.47551763613E-03  1.50101228163E-03  1.52693539856E-03  1.55329418797E-03
  1.58009597190E-03  1.60734819546E-03  1.63505842889E-03  1.66323436967E-03
  1.69188384461E-03  1.72101481210E-03  1.75063536425E-03  1.78075372918E-03
  1.81137827331E-03  1.84251750364E-03  1.87418007017E-03  1.90637476825E-03
  1.93911054106E-03  1.97239648209E-03  2.00624183764E-03  2.04065600941E-03
  2.07564855713E-03  2.11122920116E-03  2.14740782526E-03  2.18419447926E-03
  2.22159938192E-03  2.25963292374E-03  2.29830566982E-03  2.33762836286E-03
  2.37761192606E-03  2.41826746624E-03  2.45960627686E-03  2.50163984118E-03
  2.54437983548E-03  2.58783813224E-03  2.63202680349E-03  2.67695812416E-03
  2.72264457544E-03  2.76909884832E-03  2.81633384705E-03  2.86436269278E-03
  2.91319872716E-03  2.96285551607E-03  3.01334685337E-03  3.06468676478E-03
  3.11688951169E-03  3.16996959522E-03  3.22394176017E-03  3.27882099916E-03
  3.33462255676E-03  3.39136193378E-03  3.44905489152E-03  3.50771745616E-03
  3.56736592325E-03  3.62801686218E-03  3.68968712083E-03  3.75239383023E-03
  3.81615440929E-03  3.88098656972E-03  3.94690832085E-03  4.01393797471E-03
  4.08209415108E-03  4.15139578267E-03  4.22186212038E-03  4.29351273864E-03
  4.36636754086E-03  4.44044676495E-03  4.51577098897E-03  4.59236113677E-03
  4.67023848391E-03  4.74942466347E-03  4.82994167213E-03  4.91181187623E-03
  4.99505801804E-03  5.07970322200E-03  5.16577100123E-03  5.25328526400E-03
  5.34227032037E-03  5.43275088901E-03  5.52475210397E-03  5.61829952175E-03
  5.71341912834E-03  5.81013734647E-03  5.90848104292E-03  6.00847753602E-03
  6.11015460323E-03  6.21354048882E-03  6.31866391176E-03  6.42555407368E-03
  6.53424066697E-03  6.64475388306E-03  6.75712442078E-03  6.87138349487E-03
  6.98756284471E-03  7.10569474309E-03  7.22581200519E-03  7.34794799767E-03
  7.47213664800E-03  7.59841245382E-03  7.72681049254E-03  7.85736643113E-03
  7.99011653596E-03  8.12509768290E-03  8.26234736760E-03  8.40190371584E-03
  8.54380549418E-03  8.68809212069E-03  8.83480367592E-03  8.98398091401E-03
  9.13566527405E-03  9.28989889156E-03  9.44672461021E-03  9.60618599369E-03
  9.76832733787E-03  9.93319368305E-03  1.01008308265E-02  1.02712853352E-02
  1.04446045586E-02  1.06208366422E-02  1.08000305404E-02  1.09822360305E-02
  1.11675037262E-02  1.13558850920E-02  1.15474324573E-02  1.17421990309E-02
  1.19402389159E-02  1.21416071246E-02  1.23463595940E-02  1.25545532010E-02
  1.27662457786E-02  1.29814961316E-02  1.32003640531E-02  1.34229103412E-02
  1.36491968158E-02  1.38792863356E-02  1.41132428159E-02  1.43511312461E-02
  1.45930177078E-02  1.48389693934E-02  1.50890546242E-02  1.53433428701E-02
  1.56019047682E-02  1.58648121430E-02  1.61321380260E-02  1.64039566761E-02
  1.66803436003E-02  1.69613755744E-02  1.72471306647E-02  1.75376882495E-02
  1.78331290410E-02  1.81335351081E-02  1.84389898989E-02  1.87495782637E-02
  1.90653864792E-02  1.93865022720E-02  1.97130148428E-02  2.00450148918E-02
  2.03825946433E-02  2.07258478716E-02  2.10748699271E-02  2.14297577625E-02
  2.17906099602E-02  2.21575267591E-02  2.25306100830E-02  2.29099635685E-02
  2.32956925940E-02  2.36879043089E-02  2.40867076635E-02  2.44922134390E-02
  2.49045342786E-02  2.53237847184E-02  2.57500812196E-02  2.61835422007E-02
  2.66242880702E-02  2.70724412604E-02  2.75281262612E-02  2.79914696547E-02
  2.84626001503E-02  2.89416486207E-02  2.94287481380E-02  2.99240340107E-02
  3.04276438214E-02  3.09397174649E-02  3.14603971873E-02  3.19898276251E-02
  3.25281558458E-02  3.30755313884E-02  3.36321063053E-02  3.41980352041E-02
  3.47734752909E-02  3.53585864139E-02  3.59535311078E-02  3.65584746388E-02
  3.71735850506E-02  3.77990332112E-02  3.84349928602E-02  3.90816406573E-02
  3.97391562308E-02  4.04077222283E-02  4.10875243668E-02  4.17787514847E-02
  4.24815955939E-02  4.31962519334E-02  4.39229190235E-02  4.46617987207E-02
  4.54130962743E-02  4.61770203828E-02  4.69537832522E-02  4.77436006550E-02
  4.85466919901E-02  4.93632803434E-02  5.01935925505E-02  5.10378592588E-02
  5.18963149923E-02  5.27691982165E-02  5.36567514045E-02  5.45592211047E-02
  5.54768580088E-02  5.64099170220E-02  5.73586573331E-02  5.83233424874E-02
  5.93042404591E-02  6.03016237261E-02  6.13157693459E-02  6.23469590321E-02
  6.33954792328E-02  6.44616212104E-02  6.55456811223E-02  6.66479601032E-02
  6.77687643489E-02  6.89084052010E-02  7.00671992338E-02  7.12454683420E-02
  7.24435398301E-02  7.36617465035E-02  7.49004267607E-02  7.61599246875E-02
  7.74405901526E-02  7.87427789046E-02  8.00668526711E-02  8.14131792586E-02
  8.27821326557E-02  8.41740931358E-02  8.55894473636E-02  8.70285885022E-02
  8.84919163222E-02  8.99798373131E-02  9.14927647957E-02  9.30311190374E-02
  9.45953273688E-02  9.61858243021E-02  9.78030516525E-02  9.94474586599E-02
  1.01119502115E-01  1.02819646485E-01  1.04548364042E-01  1.06306134998E-01
  1.08093447634E-01  1.09910798436E-01  1.11758692236E-01  1.13637642350E-01
  1.15548170720E-01  1.17490808061E-01  1.19466094008E-01  1.21474577262E-01
  1.23516815750E-01  1.25593376772E-01  1.27704837165E-01  1.29851783459E-01
  1.32034812042E-01  1.34254529324E-01  1.36511551908E-01  1.38806506760E-01
  1.41140031381E-01  1.43512773987E-01  1.45925393690E-01  1.48378560677E-01
  1.50872956399E-01  1.53409273759E-01  1.55988217307E-01  1.58610503432E-01
  1.61276860564E-01  1.63988029375E-01  1.66744762984E-01  1.69547827170E-01
  1.72398000578E-01  1.75296074942E-01  1.78242855302E-01  1.81239160226E-01
  1.84285822040E-01  1.87383687059E-01  1.90533615822E-01  1.93736483327E-01
  1.96993179283E-01  2.00304608346E-01  2.03671690381E-01  2.07095360708E-01
  2.10576570370E-01  2.14116286392E-01  2.17715492051E-01  2.21375187149E-01
  2.25096388292E-01  2.28880129171E-01  2.32727460850E-01  2.36639452055E-01
  2.40617189477E-01  2.44661778069E-01  2.48774341353E-01  2.52956021734E-01
  2.57207980817E-01  2.61531399729E-01  2.65927479448E-01  2.70397441135E-01
  2.74942526475E-01  2.79563998021E-01  2.84263139544E-01  2.89041256393E-01
  2.93899675851E-01  2.98839747513E-01  3.03862843651E-01  3.08970359602E-01
  3.14163714153E-01  3.19444349937E-01  3.24813733831E-01  3.30273357365E-01
  3.35824737135E-01  3.41469415228E-01  3.47208959645E-01  3.53044964743E-01
  3.58979051670E-01  3.65012868823E-01  3.71148092300E-01  3.77386426370E-01
  3.83729603944E-01  3.90179387055E-01  3.96737567352E-01  4.03405966595E-01
  4.10186437158E-01  4.17080862549E-01  4.24091157932E-01  4.31219270654E-01
  4.38467180794E-01  4.45836901707E-01  4.53330480584E-01  4.60949999024E-01
  4.68697573607E-01  4.76575356489E-01  4.84585535993E-01  4.92730337220E-01
  5.01012022667E-01  5.09432892856E-01  5.17995286972E-01  5.26701583512E-01
  5.35554200948E-01  5.44555598397E-01  5.53708276306E-01  5.63014777144E-01
  5.72477686110E-01  5.82099631850E-01  5.91883287189E-01  6.01831369872E-01
  6.11946643320E-01  6.22231917395E-01  6.32690049184E-01  6.43323943791E-01
  6.54136555145E-01  6.65130886817E-01  6.76309992859E-01  6.87676978652E-01
  6.99235001762E-01  7.10987272828E-01  7.22937056444E-01  7.35087672072E-01
  7.47442494961E-01  7.60004957084E-01  7.72778548097E-01  7.85766816300E-01
  7.98973369630E-01  8.12401876658E-01  8.26056067613E-01  8.39939735411E-01
  8.54056736718E-01  8.68410993012E-01  8.83006491680E-01  8.97847287121E-01
  9.12937501874E-01  9.28281327761E-01  9.43883027055E-01  9.59746933663E-01
  9.75877454325E-01  9.92279069848E-01  1.00895633634E+00  1.02591388648E+00
  1.04315643081E+00  1.06068875904E+00  1.07851574137E+00  1.09664232986E+00
  1.11507355978E+00  1.13381455104E+00  1.15287050959E+00  1.17224672887E+00
  1.19194859130E+00  1.21198156974E+00  1.23235122903E+00  1.25306322755E+00
  1.27412331875E+00  1.29553735281E+00  1.31731127820E+00  1.33945114337E+00
  1.36196309843E+00  1.38485339684E+00  1.40812839718E+00  1.43179456485E+00
  1.45585847396E+00  1.48032680908E+00  1.50520636712E+00  1.53050405924E+00
  1.55622691272E+00  1.58238207298E+00  1.60897680551E+00  1.63601849789E+00
  1.66351466190E+00  1.69147293551E+00  1.71990108512E+00  1.74880700759E+00
  1.77819873255E+00  1.80808442455E+00  1.83847238537E+00  1.86937105629E+00
  1.90078902049E+00  1.93273500537E+00  1.96521788503E+00  1.99824668269E+00
  2.03183057324E+00  2.06597888575E+00  2.10070110609E+00  2.13600687953E+00
  2.17190601346E+00  2.20840848010E+00  2.24552441925E+00  2.28326414114E+00
  2.32163812927E+00  2.36065704331E+00  2.40033172212E+00  2.44067318669E+00
  2.48169264324E+00  2.52340148632E+00  2.56581130201E+00  2.60893387107E+00
  2.65278117227E+00  2.69736538570E+00  2.74269889615E+00  2.78879429656E+00
  2.83566439150E+00  2.88332220073E+00  2.93178096286E+00  2.98105413895E+00
  3.03115541632E+00  3.08209871230E+00  3.13389817815E+00  3.18656820294E+00
  3.24012341757E+00  3.29457869882E+00  3.34994917353E+00  3.40625022272E+00
  3.46349748595E+00  3.52170686560E+00  3.58089453132E+00  3.64107692450E+00
  3.70227076286E+00  3.76449304509E+00  3.82776105555E+00  3.89209236910E+00
  3.95750485596E+00  4.02401668668E+00  4.09164633721E+00  4.16041259398E+00
  4.23033455919E+00  4.30143165604E+00  4.37372363420E+00  4.44723057522E+00
  4.52197289818E+00  4.59797136531E+00  4.67524708779E+00  4.75382153160E+00
  4.83371652346E+00  4.91495425696E+00  4.99755729864E+00  5.08154859434E+00
  5.16695147550E+00  5.25378966569E+00  5.34208728720E+00  5.43186886771E+00
  5.52315934713E+00  5.61598408450E+00  5.71036886507E+00  5.80633990746E+00
  5.90392387089E+00  6.00314786264E+00  6.10403944559E+00  6.20662664581E+00
  6.31093796041E+00  6.41700236543E+00  6.52484932388E+00  6.63450879395E+00
  6.74601123730E+00  6.85938762755E+00  6.97466945888E+00  7.09188875475E+00
  7.21107807683E+00  7.33227053404E+00  7.45549979172E+00  7.58080008103E+00
  7.70820620839E+00  7.83775356522E+00  7.96947813773E+00  8.10341651693E+00
  8.23960590878E+00  8.37808414455E+00  8.51888969129E+00  8.66206166258E+00
  8.80763982931E+00  8.95566463081E+00  9.10617718604E+00  9.25921930499E+00
  9.41483350036E+00  9.57306299930E+00  9.73395175549E+00  9.89754446126E+00
  1.00638865601E+01  1.02330242592E+01  1.04050045424E+01  1.05798751830E+01
  1.07576847574E+01  1.09384826582E+01  1.11223191083E+01  1.13092451745E+01
  1.14993127819E+01  1.16925747284E+01  1.18890846989E+01  1.20888972810E+01
  1.22920679793E+01  1.24986532315E+01  1.27087104237E+01  1.29222979065E+01
  1.31394750110E+01  1.33603020658E+01  1.35848404130E+01  1.38131524258E+01
  1.40453015257E+01  1.42813522002E+01  1.45213700202E+01  1.47654216590E+01
  1.50135749103E+01  1.52658987072E+01  1.55224631411E+01  1.57833394817E+01
  1.60486001962E+01  1.63183189700E+01  1.65925707265E+01  1.68714316487E+01
  1.71549791997E+01  1.74432921445E+01  1.77364505719E+01  1.80345359167E+01
  1.83376309823E+01  1.86458199637E+01  1.89591884709E+01  1.92778235529E+01
  1.96018137212E+01  1.99312489754E+01  2.02662208273E+01  2.06068223268E+01
  2.09531480877E+01  2.13052943137E+01  2.16633588255E+01  2.20274410878E+01
  2.23976422369E+01  2.27740651088E+01  2.31568142679E+01  2.35459960357E+01
  2.39417185210E+01  2.43440916491E+01  2.47532271929E+01  2.51692388038E+01
  2.55922420434E+01  2.60223544151E+01  2.64596953974E+01  2.69043864768E+01
  2.73565511814E+01  2.78163151154E+01  2.82838059939E+01  2.87591536786E+01
  2.92424902136E+01  2.97339498621E+01  3.02336691437E+01  3.07417868728E+01
  3.12584441962E+01  3.17837846334E+01  3.23179541154E+01  3.28611010263E+01
  3.34133762436E+01  3.39749331807E+01  3.45459278292E+01  3.51265188024E+01
  3.57168673793E+01  3.63171375495E+01  3.69274960584E+01  3.75481124541E+01
  3.81791591340E+01  3.88208113929E+01  3.94732474717E+01  4.01366486067E+01
  4.08111990804E+01  4.14970862722E+01  4.21945007108E+01  4.29036361268E+01
  4.36246895069E+01  4.43578611484E+01  4.51033547147E+01  4.58613772922E+01
  4.66321394475E+01  4.74158552863E+01  4.82127425124E+01  4.90230224885E+01
  4.98469202976E+01  5.06846648054E+01  5.15364887243E+01  5.24026286773E+01
  5.32833252646E+01  5.41788231297E+01  5.50893710278E+01  5.60152218946E+01
  5.69566329171E+01  5.79138656042E+01  5.88871858601E+01  5.98768640577E+01
  6.08831751142E+01  6.19063985667E+01  6.29468186507E+01  6.40047243783E+01
  6.50804096191E+01  6.61741731814E+01  6.72863188956E+01  6.84171556980E+01
  6.95669977174E+01  7.07361643616E+01  7.19249804067E+01  7.31337760871E+01
  7.43628871870E+01  7.56126551341E+01  7.68834270943E+01  7.81755560679E+01
  7.94894009879E+01  8.08253268197E+01  8.21837046625E+01  8.35649118520E+01
  8.49693320659E+01  8.63973554299E+01  8.78493786264E+01  8.93258050044E+01
  9.08270446919E+01  9.23535147096E+01  9.39056390868E+01  9.54838489790E+01
  9.70885827881E+01  9.87202862838E+01  1.00379412728E+02  1.02066422998E+02
  1.03781785721E+02  1.05525977397E+02  1.07299482534E+02  1.09102793784E+02
  1.10936412079E+02  1.12800846769E+02  1.14696615764E+02  1.16624245680E+02
  1.18584271980E+02  1.20577239130E+02  1.22603700745E+02  1.24664219743E+02
  1.26759368504E+02  1.28889729027E+02  1.31055893093E+02  1.33258462428E+02
  1.35498048871E+02  1.37775274544E+02  1.40090772023E+02  1.42445184518E+02
  1.44839166048E+02  1.47273381622E+02  1.49748507427E+02  1.52265231015E+02
  1.54824251490E+02  1.57426279709E+02  1.60072038474E+02  1.62762262735E+02
  1.65497699793E+02  1.68279109511E+02  1.71107264519E+02  1.73982950434E+02
  1.76906966078E+02  1.79880123694E+02  1.82903249179E+02  1.85977182310E+02
  1.89102776977E+02  1.92280901420E+02  1.95512438473E+02  1.98798285805E+02
  2.02139356174E+02
  </PP_R>
  <PP_RAB>
  6.90819670875E-07  7.02429814501E-07  7.14235082036E-07  7.26238752799E-07
  7.38444161217E-07  7.50854697763E-07  7.63473809885E-07  7.76305002975E-07
  7.89351841336E-07  8.02617949172E-07  8.16107011600E-07  8.29822775668E-07
  8.43769051398E-07  8.57949712845E-07  8.72368699174E-07  8.87030015751E-07
  9.01937735258E-07  9.17095998825E-07  9.32509017177E-07  9.48181071808E-07
  9.64116516167E-07  9.80319776868E-07  9.96795354922E-07  1.01354782698E-06
  1.03058184663E-06  1.04790214563E-06  1.06551353530E-06  1.08342090781E-06
  1.10162923753E-06  1.12014358246E-06  1.13896908559E-06  1.15811097634E-06
  1.17757457203E-06  1.19736527935E-06  1.21748859582E-06  1.23795011141E-06
  1.25875550998E-06  1.27991057096E-06  1.30142117088E-06  1.32329328505E-06
  1.34553298919E-06  1.36814646115E-06  1.39113998260E-06  1.41451994076E-06
  1.43829283022E-06  1.46246525472E-06  1.48704392897E-06  1.51203568054E-06
  1.53744745174E-06  1.56328630156E-06  1.58955940764E-06  1.61627406821E-06
  1.64343770420E-06  1.67105786122E-06  1.69914221173E-06  1.72769855712E-06
  1.75673482987E-06  1.78625909583E-06  1.81627955635E-06  1.84680455064E-06
  1.87784255808E-06  1.90940220053E-06  1.94149224475E-06  1.97412160485E-06
  2.00729934477E-06  2.04103468074E-06  2.07533698392E-06  2.11021578293E-06
  2.14568076656E-06  2.18174178643E-06  2.21840885971E-06  2.25569217194E-06
  2.29360207983E-06  2.33214911416E-06  2.37134398268E-06  2.41119757311E-06
  2.45172095615E-06  2.49292538856E-06  2.53482231627E-06  2.57742337758E-06
  2.62074040641E-06  2.66478543554E-06  2.70957069998E-06  2.75510864037E-06
  2.80141190643E-06  2.84849336047E-06  2.89636608099E-06  2.94504336627E-06
  2.99453873809E-06  3.04486594547E-06  3.09603896853E-06  3.14807202233E-06
  3.20097956081E-06  3.25477628087E-06  3.30947712638E-06  3.36509729237E-06
  3.42165222925E-06  3.47915764708E-06  3.53762951997E-06  3.59708409046E-06
  3.65753787411E-06  3.71900766403E-06  3.78151053554E-06  3.84506385096E-06
  3.90968526439E-06  3.97539272665E-06  4.04220449023E-06  4.11013911438E-06
  4.17921547027E-06  4.24945274622E-06  4.32087045304E-06  4.39348842943E-06
  4.46732684752E-06  4.54240621846E-06  4.61874739812E-06  4.69637159286E-06
  4.77530036547E-06  4.85555564110E-06  4.93715971342E-06  5.02013525073E-06
  5.10450530234E-06  5.19029330491E-06  5.27752308899E-06  5.36621888565E-06
  5.45640533316E-06  5.54810748391E-06  5.64135081131E-06  5.73616121687E-06
  5.83256503743E-06  5.93058905244E-06  6.03026049144E-06  6.13160704158E-06
  6.23465685532E-06  6.33943855827E-06  6.44598125715E-06  6.55431454782E-06
  6.66446852356E-06  6.77647378342E-06  6.89036144068E-06  7.00616313153E-06
  7.12391102386E-06  7.24363782617E-06  7.36537679667E-06  7.48916175254E-06
  7.61502707927E-06  7.74300774026E-06  7.87313928653E-06  8.00545786656E-06
  8.14000023635E-06  8.27680376967E-06  8.41590646837E-06  8.55734697297E-06
  8.70116457343E-06  8.84739922000E-06  8.99609153435E-06  9.14728282086E-06
  9.30101507808E-06  9.45733101041E-06  9.61627403995E-06  9.77788831855E-06
  9.94221874011E-06  1.01093109530E-05  1.02792113729E-05  1.04519671953E-05
  1.06276264092E-05  1.08062378098E-05  1.09878510127E-05  1.11725164671E-05
  1.13602854701E-05  1.15512101810E-05  1.17453436356E-05  1.19427397613E-05
  1.21434533914E-05  1.23475402811E-05  1.25550571225E-05  1.27660615606E-05
  1.29806122089E-05  1.31987686663E-05  1.34205915332E-05  1.36461424285E-05
  1.38754840066E-05  1.41086799751E-05  1.43457951121E-05  1.45868952844E-05
  1.48320474658E-05  1.50813197559E-05  1.53347813983E-05  1.55925028009E-05
  1.58545555545E-05  1.61210124533E-05  1.63919475148E-05  1.66674360004E-05
  1.69475544365E-05  1.72323806356E-05  1.75219937179E-05  1.78164741333E-05
  1.81159036839E-05  1.84203655465E-05  1.87299442957E-05  1.90447259277E-05
  1.93647978837E-05  1.96902490748E-05  2.00211699062E-05  2.03576523023E-05
  2.06997897328E-05  2.10476772380E-05  2.14014114555E-05  2.17610906472E-05
  2.21268147261E-05  2.24986852848E-05  2.28768056230E-05  2.32612807765E-05
  2.36522175464E-05  2.40497245288E-05  2.44539121450E-05  2.48648926717E-05
  2.52827802730E-05  2.57076910313E-05  2.61397429803E-05  2.65790561370E-05
  2.70257525358E-05  2.74799562619E-05  2.79417934858E-05  2.84113924987E-05
  2.88888837478E-05  2.93743998725E-05  2.98680757417E-05  3.03700484906E-05
  3.08804575594E-05  3.13994447316E-05  3.19271541737E-05  3.24637324750E-05
  3.30093286886E-05  3.35640943723E-05  3.41281836315E-05  3.47017531611E-05
  3.52849622897E-05  3.58779730236E-05  3.64809500918E-05  3.70940609919E-05
  3.77174760363E-05  3.83513683999E-05  3.89959141680E-05  3.96512923852E-05
  4.03176851052E-05  4.09952774415E-05  4.16842576185E-05  4.23848170239E-05
  4.30971502622E-05  4.38214552082E-05  4.45579330624E-05  4.53067884068E-05
  4.60682292615E-05  4.68424671428E-05  4.76297171217E-05  4.84301978839E-05
  4.92441317902E-05  5.00717449386E-05  5.09132672271E-05  5.17689324171E-05
  5.26389781991E-05  5.35236462579E-05  5.44231823404E-05  5.53378363235E-05
  5.62678622836E-05  5.72135185673E-05  5.81750678629E-05  5.91527772736E-05
  6.01469183917E-05  6.11577673739E-05  6.21856050181E-05  6.32307168413E-05
  6.42933931591E-05  6.53739291662E-05  6.64726250184E-05  6.75897859161E-05
  6.87257221889E-05  6.98807493821E-05  7.10551883438E-05  7.22493653148E-05
  7.34636120185E-05  7.46982657534E-05  7.59536694870E-05  7.72301719504E-05
  7.85281277360E-05  7.98478973954E-05  8.11898475396E-05  8.25543509414E-05
  8.39417866381E-05  8.53525400376E-05  8.67870030248E-05  8.82455740708E-05
  8.97286583438E-05  9.12366678210E-05  9.27700214038E-05  9.43291450334E-05
  9.59144718099E-05  9.75264421120E-05  9.91655037195E-05  1.00832111938E-04
  1.02526729725E-04  1.04249827818E-04  1.06001884867E-04  1.07783387566E-04
  1.09594830787E-04  1.11436717722E-04  1.13309560017E-04  1.15213877919E-04
  1.17150200416E-04  1.19119065389E-04  1.21121019757E-04  1.23156619632E-04
  1.25226430471E-04  1.27331027234E-04  1.29470994547E-04  1.31646926856E-04
  1.33859428603E-04  1.36109114386E-04  1.38396609131E-04  1.40722548268E-04
  1.43087577907E-04  1.45492355016E-04  1.47937547603E-04  1.50423834904E-04
  1.52951907572E-04  1.55522467864E-04  1.58136229841E-04  1.60793919566E-04
  1.63496275302E-04  1.66244047722E-04  1.69038000112E-04  1.71878908590E-04
  1.74767562314E-04  1.77704763707E-04  1.80691328678E-04  1.83728086845E-04
  1.86815881774E-04  1.89955571204E-04  1.93148027293E-04  1.96394136853E-04
  1.99694801603E-04  2.03050938415E-04  2.06463479571E-04  2.09933373022E-04
  2.13461582648E-04  2.17049088530E-04  2.20696887222E-04  2.24405992024E-04
  2.28177433267E-04  2.32012258597E-04  2.35911533269E-04  2.39876340439E-04
  2.43907781468E-04  2.48006976227E-04  2.52175063408E-04  2.56413200838E-04
  2.60722565807E-04  2.65104355387E-04  2.69559786771E-04  2.74090097606E-04
  2.78696546342E-04  2.83380412577E-04  2.88142997416E-04  2.92985623829E-04
  2.97909637022E-04  3.02916404807E-04  3.08007317985E-04  3.13183790733E-04
  3.18447260991E-04  3.23799190870E-04  3.29241067051E-04  3.34774401200E-04
  3.40400730392E-04  3.46121617531E-04  3.51938651789E-04  3.57853449046E-04
  3.63867652341E-04  3.69982932323E-04  3.76200987721E-04  3.82523545812E-04
  3.88952362903E-04  3.95489224819E-04  4.02135947395E-04  4.08894376988E-04
  4.15766390980E-04  4.22753898311E-04  4.29858839998E-04  4.37083189682E-04
  4.44428954174E-04  4.51898174011E-04  4.59492924025E-04  4.67215313916E-04
  4.75067488843E-04  4.83051630016E-04  4.91169955304E-04  4.99424719849E-04
  5.07818216694E-04  5.16352777420E-04  5.25030772793E-04  5.33854613423E-04
  5.42826750435E-04  5.51949676145E-04  5.61225924759E-04  5.70658073072E-04
  5.80248741185E-04  5.90000593236E-04  5.99916338134E-04  6.09998730317E-04
  6.20250570514E-04  6.30674706524E-04  6.41274034008E-04  6.52051497292E-04
  6.63010090184E-04  6.74152856809E-04  6.85482892451E-04  6.97003344416E-04
  7.08717412903E-04  7.20628351894E-04  7.32739470062E-04  7.45054131683E-04
  7.57575757576E-04  7.70307826050E-04  7.83253873874E-04  7.96417497255E-04
  8.09802352839E-04  8.23412158728E-04  8.37250695512E-04  8.51321807317E-04
  8.65629402876E-04  8.80177456612E-04  8.94970009747E-04  9.10011171416E-04
  9.25305119818E-04  9.40856103370E-04  9.56668441889E-04  9.72746527794E-04
  9.89094827322E-04  1.00571788177E-03  1.02262030877E-03  1.03980680354E-03
  1.05728214022E-03  1.07505117318E-03  1.09311883838E-03  1.11149015472E-03
  1.13017022549E-03  1.14916423969E-03  1.16847747357E-03  1.18811529204E-03
  1.20808315017E-03  1.22838659473E-03  1.24903126568E-03  1.27002289780E-03
  1.29136732221E-03  1.31307046808E-03  1.33513836419E-03  1.35757714065E-03
  1.38039303060E-03  1.40359237193E-03  1.42718160906E-03  1.45116729471E-03
  1.47555609171E-03  1.50035477489E-03  1.52557023293E-03  1.55120947029E-03
  1.57727960915E-03  1.60378789137E-03  1.63074168055E-03  1.65814846400E-03
  1.68601585492E-03  1.71435159441E-03  1.74316355371E-03  1.77245973631E-03
  1.80224828023E-03  1.83253746027E-03  1.86333569027E-03  1.89465152550E-03
  1.92649366501E-03  1.95887095403E-03  1.99179238646E-03  2.02526710737E-03
  2.05930441550E-03  2.09391376587E-03  2.12910477242E-03  2.16488721065E-03
  2.20127102037E-03  2.23826630840E-03  2.27588335147E-03  2.31413259900E-03
  2.35302467602E-03  2.39257038613E-03  2.43278071451E-03  2.47366683096E-03
  2.51524009298E-03  2.55751204899E-03  2.60049444145E-03  2.64419921020E-03
  2.68863849573E-03  2.73382464258E-03  2.77977020274E-03  2.82648793917E-03
  2.87399082931E-03  2.92229206871E-03  2.97140507470E-03  3.02134349010E-03
  3.07212118700E-03  3.12375227066E-03  3.17625108336E-03  3.22963220846E-03
  3.28391047438E-03  3.33910095877E-03  3.39521899268E-03  3.45228016481E-03
  3.51030032584E-03  3.56929559287E-03  3.62928235385E-03  3.69027727216E-03
  3.75229729121E-03  3.81535963919E-03  3.87948183383E-03  3.94468168726E-03
  4.01097731096E-03  4.07838712082E-03  4.14692984222E-03  4.21662451523E-03
  4.28749049995E-03  4.35954748182E-03  4.43281547714E-03  4.50731483859E-03
  4.58306626092E-03  4.66009078668E-03  4.73840981207E-03  4.81804509288E-03
  4.89901875053E-03  4.98135327822E-03  5.06507154718E-03  5.15019681303E-03
  5.23675272223E-03  5.32476331863E-03  5.41425305019E-03  5.50524677575E-03
  5.59776977192E-03  5.69184774013E-03  5.78750681376E-03  5.88477356538E-03
  5.98367501417E-03  6.08423863338E-03  6.18649235801E-03  6.29046459251E-03