<UPF version="2.0.1">
  <PP_INFO>
    Generated using FHI98PP, converted with fhi2upf.x v.5.0.1
    Author: Abinit web site
    Generation date: 10-Jul-2012, PG
    Pseudopotential type: SL
    Element:  W
    Functional: SLA-PW

    Suggested minimum cutoff for wavefunctions:   0. Ry
    Suggested minimum cutoff for charge density:   0. Ry
    The Pseudo was generated with a Non-Relativistic Calculation
    L component and cutoff radius for Local Potential:  3   0.0000

    Valence configuration: 
    nl pn  l   occ       Rcut    Rcut US       E pseu
    6s  6  0  2.00      0.000      0.000     0.000000
    6p  6  1  0.00      0.000      0.000     0.000000
    5d  5  2  4.00      0.000      0.000     0.000000
    5f  5  3  0.00      0.000      0.000     0.000000

    Generation configuration: not available.
    Comment:
    tungsten, fhi98PP : Trouiller-Martins-type, LDA Ceperley/Alder Perdew/Wang (1992
  </PP_INFO>
  <!--                               -->
  <!-- END OF HUMAN READABLE SECTION -->
  <!--                               -->
  <PP_HEADER generated="Generated using FHI98PP, converted with fhi2upf.x v.5.0.1"
             author="Abinit web site"
             date="10-Jul-2012, PG"
             comment="tungsten, fhi98PP : Trouiller-Martins-type, LDA Ceperley/Alder Perdew/Wang (1992"
             element=" W"
             pseudo_type="SL"
             relativistic="no"
             is_ultrasoft="F"
             is_paw="F"
             is_coulomb="F"
             has_so="F"
             has_wfc="F"
             has_gipaw="F"
             paw_as_gipaw="F"
             core_correction="F"
             functional="SLA-PW"
             z_valence="6.000000000000000E+000"
             total_psenergy="0.000000000000000E+000"
             wfc_cutoff="0.000000000000000E+000"
             rho_cutoff="0.000000000000000E+000"
             l_max="2"
             l_max_rho="0"
             l_local="3"
             mesh_size="563"
             number_of_wfc="4"
             number_of_proj="3"/>
  <PP_MESH dx="2.439988682353512E-002" mesh="563" xmin="-5.075173815233832E+000" rmax="7.621036571062101E+001"
zmesh="7.400000000000000E+001">
    <PP_R type="real" size="563" columns="4">
 8.445945945945900E-005  8.654560810810800E-005  8.868328462837800E-005  9.087376175869900E-005 
 9.311834367413900E-005  9.541836676289000E-005  9.777520042193400E-005  1.001902478723600E-004 
 1.026649469948000E-004  1.052007711855700E-004  1.077992302338600E-004  1.104618712206300E-004 
 1.131902794397800E-004  1.159860793419500E-004  1.188509355016900E-004  1.217865536085800E-004 
 1.247946814827200E-004  1.278771101153400E-004  1.310356747351900E-004  1.342722559011500E-004 
 1.375887806219100E-004  1.409872235032700E-004  1.444696079238000E-004  1.480380072395200E-004 
 1.516945460183300E-004  1.554414013049800E-004  1.592808039172200E-004  1.632150397739700E-004 
 1.672464512563900E-004  1.713774386024200E-004  1.756104613359000E-004  1.799480397309000E-004 
 1.843927563122500E-004  1.889472573931700E-004  1.936142546507800E-004  1.983965267406500E-004 
 2.032969209511400E-004  2.083183548986400E-004  2.134638182646300E-004  2.187363745757700E-004 
 2.241391630277900E-004  2.296754003545800E-004  2.353483827433400E-004  2.411614877971000E-004 
 2.471181765456900E-004  2.532219955063600E-004  2.594765787953700E-004  2.658856502916200E-004 
 2.724530258538200E-004  2.791826155924100E-004  2.860784261975400E-004  2.931445633246200E-004 
 3.003852340387400E-004  3.078047493195000E-004  3.154075266276900E-004  3.231980925353900E-004 
 3.311810854210200E-004  3.393612582309100E-004  3.477434813092200E-004  3.563327452975600E-004 
 3.651341641064100E-004  3.741529779598300E-004  3.833945565154400E-004  3.928644020613700E-004 
 4.025681527922900E-004  4.125115861662600E-004  4.227006223445600E-004  4.331413277164800E-004 
 4.438399185110700E-004  4.548027644983000E-004  4.660363927814000E-004  4.775474916831000E-004 
 4.893429147276800E-004  5.014296847214500E-004  5.138149979340700E-004  5.265062283830400E-004 
 5.395109322241000E-004  5.528368522500400E-004  5.664919225006100E-004  5.804842729863800E-004 
 5.948222345291400E-004  6.095143437220100E-004  6.245693480119500E-004  6.399962109078400E-004 
 6.558041173172600E-004  6.720024790150000E-004  6.886009402466700E-004  7.056093834707600E-004 
 7.230379352424899E-004  7.408969722429800E-004  7.591971274573800E-004  7.779492965055800E-004 
 7.971646441292700E-004  8.168546108392600E-004  8.370309197269900E-004  8.577055834442500E-004 
 8.788909113553200E-004  9.005995168658000E-004  9.228443249323800E-004  9.456385797582100E-004 
 9.689958526782400E-004  9.929300502393901E-004  1.017455422480300E-003  1.042586571415600E-003 
 1.068338459729500E-003  1.094726419684900E-003  1.121766162251100E-003  1.149473786458700E-003 
 1.177865788984200E-003  1.206959073972100E-003  1.236770963099200E-003  1.267319205887800E-003 
 1.298621990273200E-003  1.330697953432900E-003  1.363566192882700E-003  1.397246277846900E-003 
 1.431758260909800E-003  1.467122689954200E-003  1.503360620396100E-003  1.540493627719900E-003 
 1.578543820324600E-003  1.617533852686600E-003  1.657486938847900E-003  1.698426866237500E-003 
 1.740378009833600E-003  1.783365346676400E-003  1.827414470739300E-003  1.872551608166600E-003 
 1.918803632888300E-003  1.966198082620700E-003  2.014763175261400E-003  2.064527825690400E-003 
 2.115521662984900E-003  2.167775048060600E-003  2.221319091747700E-003  2.276185673313900E-003 
 2.332407459444800E-003  2.390017923693000E-003  2.449051366408300E-003  2.509542935158500E-003 
 2.571528645657000E-003  2.635045403204700E-003  2.700131024663800E-003  2.766824260973000E-003 
 2.835164820219100E-003  2.905193391278500E-003  2.976951668043100E-003  3.050482374243700E-003 
 3.125829288887500E-003  3.203037272323100E-003  3.282152292949400E-003  3.363221454585300E-003 
 3.446293024513500E-003  3.531416462219000E-003  3.618642448835800E-003  3.708022917322100E-003 
 3.799611083379900E-003  3.893461477139400E-003  3.989629975624800E-003  4.088173836022700E-003 
 4.189151729772500E-003  4.292623777497800E-003  4.398651584802000E-003  4.507298278946600E-003 
 4.618628546436600E-003  4.732708671533600E-003  4.849606575720500E-003  4.969391858140800E-003 
 5.092135837036900E-003  5.217911592211700E-003  5.346794008539300E-003  5.478859820550200E-003 
 5.614187658117800E-003  5.752858093273300E-003  5.894953688177200E-003  6.040559044275200E-003 
 6.189760852668700E-003  6.342647945729700E-003  6.499311349989200E-003  6.659844340333900E-003 
 6.824342495540200E-003  6.992903755180000E-003  7.165628477933000E-003  7.342619501337900E-003 
 7.523982203020900E-003  7.709824563435600E-003  7.900257230152400E-003  8.095393583737200E-003 
 8.295349805255500E-003  8.500244945445301E-003  8.710200995597800E-003  8.925342960189099E-003 
 9.145798931305699E-003  9.371700164909000E-003  9.603181158982199E-003  9.840379733609100E-003 
 1.008343711302900E-002  1.033249800972100E-002  1.058771071056100E-002  1.084922716511200E-002 
 1.111720307609000E-002  1.139179799207000E-002  1.167317540247400E-002  1.196150283491500E-002 
 1.225695195493700E-002  1.255969866822400E-002  1.286992322532900E-002  1.318781032899500E-002 
 1.351354924412100E-002  1.384733391045100E-002  1.418936305803900E-002  1.453984032557300E-002 
 1.489897438161400E-002  1.526697904884000E-002  1.564407343134700E-002  1.603048204510100E-002 
 1.642643495161500E-002  1.683216789492000E-002  1.724792244192400E-002  1.767394612624000E-002 
 1.811049259555800E-002  1.855782176266800E-002  1.901619996020600E-002  1.948590009922300E-002 
 1.996720183167400E-002  2.046039171691600E-002  2.096576339232400E-002  2.148361774811500E-002 
 2.201426310649300E-002  2.255801540522300E-002  2.311519838573200E-002  2.368614378586000E-002 
 2.427119153737100E-002  2.487068996834400E-002  2.548499601056200E-002  2.611447541202300E-002 
 2.675950295470000E-002  2.742046267768100E-002  2.809774810582000E-002  2.879176248403300E-002 
 2.950291901738900E-002  3.023164111711800E-002  3.097836265271100E-002  3.174352821023300E-002 
 3.252759335702600E-002  3.333102491294500E-002  3.415430122829400E-002  3.499791246863300E-002 
 3.586236090660800E-002  3.674816122100200E-002  3.765584080316000E-002  3.858594007099800E-002 
 3.953901279075200E-002  4.051562640668400E-002  4.151636237892900E-002  4.254181652968800E-002 
 4.359259939797200E-002  4.466933660310100E-002  4.577266921719800E-002  4.690325414686300E-002 
 4.806176452429000E-002  4.924889010804000E-002  5.046533769370900E-002  5.171183153474300E-002 
 5.298911377365200E-002  5.429794488386100E-002  5.563910412249200E-002  5.701338999431800E-002 
 5.842162072717700E-002  5.986463475913900E-002  6.134329123768900E-002  6.285847053125999E-002 
 6.441107475338199E-002  6.600202829979100E-002  6.763227839879600E-002  6.930279567524600E-002 
 7.101457472842500E-002  7.276863472421700E-002  7.456602000190500E-002  7.640780069595200E-002 
 7.829507337314200E-002  8.022896168545900E-002  8.221061703908900E-002  8.424121927995500E-002 
 8.632197739616999E-002  8.845413023785501E-002  9.063894725473000E-002  9.287772925192200E-002 
 9.517180916444400E-002  9.752255285080599E-002  9.993135990622100E-002  1.023996644959000E-001 
 1.049289362089500E-001  1.075206809333100E-001  1.101764417523700E-001  1.128977998636500E-001 
 1.156863755202800E-001  1.185438289956300E-001  1.214718615718300E-001  1.244722165526500E-001 
 1.275466803015000E-001  1.306970833049500E-001  1.339253012625800E-001  1.372332562037700E-001 
 1.406229176320000E-001  1.440963036975100E-001  1.476554823988400E-001  1.513025728140900E-001 
 1.550397463626000E-001  1.588692280977500E-001  1.627932980317700E-001  1.668142924931500E-001 
 1.709346055177300E-001  1.751566902740200E-001  1.794830605237900E-001  1.839162921187300E-001 
 1.884590245340600E-001  1.931139624400500E-001  1.978838773123200E-001  2.027716090819300E-001 
 2.077800678262600E-001  2.129122355015700E-001  2.181711677184600E-001  2.235599955611000E-001 
 2.290819274514600E-001  2.347402510595100E-001  2.405383352606800E-001  2.464796321416200E-001 
 2.525676790555200E-001  2.588061007281900E-001  2.651986114161800E-001  2.717490171181600E-001 
 2.784612178409700E-001  2.853392099216500E-001  2.923870884067100E-001  2.996090494903600E-001 
 3.070093930127700E-001  3.145925250201800E-001  3.223629603881800E-001  3.303253255097700E-001 
 3.384843610498600E-001  3.468449247677900E-001  3.554119944095600E-001  3.641906706714700E-001 
 3.731861802370600E-001  3.824038788889100E-001  3.918492546974700E-001  4.015279312885000E-001 
 4.114456711913200E-001  4.216083792697500E-001  4.320221062377100E-001  4.426930522617800E-001 
 4.536275706526500E-001  4.648321716477700E-001  4.763135262874700E-001  4.880784703867700E-001 
 5.001340086053200E-001  5.124873186178800E-001  5.251457553877400E-001  5.381168555458100E-001 
 5.514083418778000E-001  5.650281279221800E-001  5.789843226818500E-001  5.932852354521000E-001 
 6.079393807677600E-001  6.229554834727300E-001  6.383424839145000E-001  6.541095432671900E-001 
 6.702660489858900E-001  6.868216203958400E-001  7.037861144196200E-001  7.211696314457799E-001 
 7.389825213424900E-001  7.572353896196500E-001  7.759391037432600E-001  7.951047996057200E-001 
 8.147438881559800E-001  8.348680621934300E-001  8.554893033296100E-001  8.766198891218500E-001 
 8.982724003831600E-001  9.204597286726200E-001  9.431950839708400E-001  9.664920025449200E-001 
 9.903643550077800E-001  1.014826354576500E+000  1.039892565534500E+000  1.065577911903200E+000 
 1.091897686327200E+000  1.118867559179500E+000  1.146503587891200E+000  1.174822226512100E+000 
 1.203840335507000E+000  1.233575191794000E+000  1.264044499031300E+000  1.295266398157400E+000 
 1.327259478191900E+000  1.360042787303200E+000  1.393635844149600E+000  1.428058649500100E+000 
 1.463331698142800E+000  1.499475991086900E+000  1.536513048066700E+000  1.574464920354000E+000 
 1.613354203886700E+000  1.653204052722700E+000  1.694038192825000E+000  1.735880936187800E+000 
 1.778757195311600E+000  1.822692498035800E+000  1.867713002737300E+000  1.913845513904900E+000 
 1.961117498098400E+000  2.009557100301400E+000  2.059193160678800E+000  2.110055231747600E+000 
 2.162173595971800E+000  2.215579283792300E+000  2.270304092101900E+000  2.326380603176800E+000 
 2.383842204075300E+000  2.442723106516000E+000  2.503058367246900E+000  2.564883908917900E+000 
 2.628236541468200E+000  2.693153984042500E+000  2.759674887448300E+000  2.827838857168300E+000 
 2.897686476940300E+000  2.969259332920800E+000  3.042600038443900E+000  3.117752259393500E+000 
 3.194760740200500E+000  3.273671330483400E+000  3.354531012346400E+000  3.437387928351300E+000 
 3.522291410181600E+000  3.609292008013100E+000  3.698441520611000E+000  3.789793026170100E+000 
 3.883400913916500E+000  3.979320916490200E+000  4.077610143127600E+000  4.178327113662800E+000 
 4.281531793370300E+000  4.387285628666500E+000  4.495651583694600E+000  4.606694177811800E+000 
 4.720479524003800E+000  4.837075368246700E+000  4.956551129842400E+000  5.078977942749500E+000 
 5.204428697935400E+000  5.332978086774400E+000  5.464702645517700E+000  5.599680800862000E+000 
 5.737992916643300E+000  5.879721341684400E+000  6.024950458824000E+000  6.173766735157000E+000 
 6.326258773515300E+000  6.482517365221200E+000  6.642635544142100E+000  6.806708642082400E+000 
 6.974834345541900E+000  7.147112753876800E+000  7.323646438897500E+000  7.504540505938300E+000 
 7.689902656435000E+000  7.879843252048900E+000  8.074475380374500E+000  8.273914922269800E+000 
 8.478280620849800E+000  8.687694152184800E+000  8.902280197743799E+000  9.122166518627999E+000 
 9.347484031638199E+000  9.578366887219600E+000  9.814952549333899E+000  1.005738187730200E+001 
 1.030579920967200E+001  1.056035245015100E+001  1.082119315566900E+001  1.108847662661500E+001 
 1.136236199929200E+001  1.164301234067400E+001  1.193059474548900E+001  1.222528043570300E+001 
 1.252724486246400E+001  1.283666781056700E+001  1.315373350548800E+001  1.347863072307400E+001 
 1.381155290193400E+001  1.415269825861200E+001  1.450226990559900E+001  1.486047597226800E+001 
 1.522752972878300E+001  1.560364971308400E+001  1.598905986099700E+001  1.638398963956300E+001 
 1.678867418366100E+001  1.720335443599700E+001  1.762827729056600E+001  1.806369573964300E+001 
 1.850986902441200E+001  1.896706278931500E+001  1.943554924021100E+001  1.991560730644500E+001 
 2.040752280691400E+001  2.091158862024500E+001  2.142810485916500E+001  2.195737904918600E+001 
 2.249972631170100E+001  2.305546955160000E+001  2.362493964952400E+001  2.420847565886800E+001 
 2.480642500764200E+001  2.541914370533000E+001  2.604699655485200E+001  2.669035736975700E+001 
 2.734960919679000E+001  2.802514454395100E+001  2.871736561418600E+001  2.942668454485700E+001 
 3.015352365311400E+001  3.089831568734600E+001  3.166150408482400E+001  3.244354323571900E+001 
 3.324489875364100E+001  3.406604775285600E+001  3.490747913235200E+001  3.576969386692100E+001 
 3.665320530543400E+001  3.755853947647800E+001  3.848623540154700E+001  3.943684541596500E+001 
 4.041093549774000E+001  4.140908560453400E+001  4.243189001896600E+001  4.347995770243400E+001 
 4.455391265768400E+001  4.565439430032900E+001  4.678205783954700E+001  4.793757466818400E+001 
 4.912163276248800E+001  5.033493709172200E+001  5.157821003788700E+001  5.285219182582300E+001 
 5.415764096392100E+001  5.549533469573000E+001  5.686606946271400E+001  5.827066137844300E+001 
 5.970994671449100E+001  6.118478239833900E+001  6.269604652357800E+001  6.424463887271000E+001 
 6.583148145286600E+001  6.745751904475200E+001  6.912371976515701E+001  7.083107564335600E+001 
 7.258060321174700E+001  7.437334411107700E+001  7.621036571062101E+001
    </PP_R>
    <PP_RAB type="real" size="563" columns="4">
 2.060801251987752E-006  2.111703042911859E-006  2.163862108071775E-006  2.217309502141149E-006 
 2.272077046844039E-006  2.328197349901081E-006  2.385703824443653E-006  2.444630708907514E-006 
 2.505013087417352E-006  2.566886910676523E-006  2.630289017370390E-006  2.695257156099284E-006 
 2.761830007854946E-006  2.830047209049145E-006  2.899949375112508E-006  2.971578124677745E-006 
 3.044976104357482E-006  3.120187014135034E-006  3.197255633384197E-006  3.276227847528806E-006 
 3.357150675362806E-006  3.440072297044239E-006  3.525042082781213E-006  3.612110622225961E-006 
 3.701329754594793E-006  3.792752599533217E-006  3.886433588741858E-006  3.982428498383652E-006 
 4.080794482293799E-006  4.181590106006387E-006  4.284875381624750E-006  4.390711803550962E-006 
 4.499162385098591E-006  4.610291696010707E-006  4.724165900902141E-006  4.840852798654319E-006 
 4.960421862780982E-006  5.082944282791839E-006  5.208493006576641E-006  5.337142783839173E-006 
 5.468970210599963E-006  5.604053774801871E-006  5.742473903039522E-006  5.884313008444587E-006 
 6.029655539753208E-006  6.178588031584903E-006  6.331199155965121E-006  6.487579775117567E-006 
 6.647822995562896E-006  6.812024223553315E-006  6.980281221875020E-006  7.152694168055352E-006 
 7.329365714006366E-006  7.510401047142399E-006  7.695907953006775E-006  7.885996879445948E-006 
 8.080781002368404E-006  8.280376293126680E-006  8.484901587567069E-006  8.694478656780031E-006 
 8.909232279602505E-006  9.129290316908484E-006  9.354783787736176E-006  9.585846947293227E-006 
 9.822617366891470E-006  1.006523601585370E-005  1.031384734544512E-005  1.056859937487785E-005 
 1.082964377943716E-005  1.109713598078942E-005  1.137123523951472E-005  1.165210474993072E-005 
 1.193991173725419E-005  1.223482755716428E-005  1.253702779782624E-005  1.284669238443251E-005 
 1.316400568632797E-005  1.348915662678038E-005  1.382233879546171E-005  1.416375056370974E-005 
 1.451359520263328E-005  1.487208100413833E-005  1.523942140494070E-005  1.561583511364261E-005 
 1.600154624094949E-005  1.639678443310104E-005  1.680178500859862E-005  1.721678909831094E-005 
 1.764204378903927E-005  1.807780227062856E-005  1.852432398671304E-005  1.898187478918492E-005 
 1.945072709647784E-005  1.993116005576077E-005  2.042345970913807E-005  2.092791916395386E-005 
 2.144483876730345E-005  2.197452628485593E-005  2.251729708409174E-005  2.307347432206882E-005 
 2.364338913782397E-005  2.422738084952816E-005  2.482579715651143E-005  2.543899434627816E-005 
 2.606733750662963E-005  2.671120074304537E-005  2.737096740139818E-005  2.804703029621266E-005 
 2.873979194452838E-005  2.944966480555799E-005  3.017707152625501E-005  3.092244519295472E-005 
 3.168622958922001E-005  3.246887946007257E-005  3.327086078273654E-005  3.409265104407007E-005 
 3.493473952486059E-005  3.579762759112289E-005  3.668182899262439E-005  3.758787016874260E-005 
 3.851629056191100E-005  3.946764293878977E-005  4.044249371937643E-005  4.144142331424642E-005 
 4.246502647010913E-005  4.351391262391863E-005  4.458870626572926E-005  4.569004731049372E-005 
 4.681859147906256E-005  4.797501068859684E-005  4.915999345260442E-005  5.037424529088481E-005 
 5.161848914956837E-005  5.289346583156205E-005  5.419993443760171E-005  5.553867281821124E-005 
 5.691047803682220E-005  5.831616684432960E-005  5.975657616538656E-005  6.123256359666954E-005 
 6.274500791750935E-005  6.429480961307116E-005  6.588289141051263E-005  6.751019882835241E-005 
 6.917770073941433E-005  7.088638994767758E-005  7.263728377938574E-005  7.443142468873499E-005 
 7.626988087854626E-005  7.815374693624828E-005  8.008414448557165E-005  8.206222285436649E-005 
 8.408915975886796E-005  8.616616200491239E-005  8.829446620643350E-005  9.047533952173377E-005 
 9.271008040791923E-005  9.500001939399523E-005  9.734651987302831E-005  9.975097891389131E-005 
 1.022148280930654E-004  1.047395343469621E-004  1.073266008453322E-004  1.099775678862117E-004 
 1.126940138130016E-004  1.154775559541831E-004  1.183298515862519E-004  1.212525989204324E-004 
 1.242475381137676E-004  1.273164523051774E-004  1.304611686771146E-004  1.336835595434388E-004 
 1.369855434641620E-004  1.403690863877266E-004  1.438362028215046E-004  1.473889570311963E-004 
 1.510294642698645E-004  1.547598920373322E-004  1.585824613706537E-004  1.624994481665081E-004 
 1.665131845362221E-004  1.706260601942658E-004  1.748405238810654E-004  1.791590848209266E-004 
 1.835843142160024E-004  1.881188467771397E-004  1.927653822925336E-004  1.975266872351601E-004 
 2.024055964098683E-004  2.074050146411918E-004  2.125279185028292E-004  2.177773580898500E-004 
 2.231564588346675E-004  2.286684233678850E-004  2.343165334250705E-004  2.401041518006707E-004 
 2.460347243501413E-004  2.521117820415943E-004  2.583389430580190E-004  2.647199149515556E-004 
 2.712584968508525E-004  2.779585817230827E-004  2.848241586916396E-004  2.918593154113205E-004 
 2.990682405019703E-004  3.064552260423704E-004  3.140246701256137E-004  3.217810794777255E-004 
 3.297290721408209E-004  3.378733802227044E-004  3.462188527142018E-004  3.547704583762532E-004 
 3.635332886981308E-004  3.725125609289779E-004  3.817136211839396E-004  3.911419476271763E-004 
 4.008031537335676E-004  4.107029916307895E-004  4.208473555240571E-004  4.312422852055130E-004 
 4.418939696500860E-004  4.528087507004362E-004  4.639931268427394E-004  4.754537570757529E-004 
 4.871974648755288E-004  4.992312422579458E-004  5.115622539417214E-004  5.241978416140965E-004 
 5.371455283019539E-004  5.504130228510030E-004  5.640082245154225E-004  5.779392276609636E-004 
 5.922143265841958E-004  6.068420204508239E-004  6.218310183559568E-004  6.371902445093519E-004 
 6.529288435487337E-004  6.690561859843852E-004  6.855818737782064E-004  7.025157460605096E-004 
 7.198678849882136E-004  7.376486217474101E-004  7.558685427045756E-004  7.745384957093795E-004 
 7.936695965534073E-004  8.132732355882875E-004  8.333610845073002E-004  8.539451032946339E-004 
 8.750375473460056E-004  8.966509747654711E-004  9.187982538421598E-004  9.414925707120599E-004 
 9.647474372086563E-004  9.885766989077205E-004  1.012994543370739E-003  1.038015508591983E-003 
 1.063654491654222E-003  1.089926757598059E-003  1.116847948510741E-003  1.144434092838962E-003 
 1.172701614932071E-003  1.201667344820894E-003  1.231348528237980E-003  1.261762836885444E-003 
 1.292928378956535E-003  1.324863709916756E-003  1.357587843551691E-003  1.391120263287429E-003 
 1.425480933790612E-003  1.460690312855258E-003  1.496769363582765E-003  1.533739566863262E-003 
 1.571622934164781E-003  1.610442020638663E-003  1.650219938548442E-003  1.690980371030582E-003 
 1.732747586195047E-003  1.775546451574063E-003  1.819402448927938E-003  1.864341689416457E-003 
 1.910390929145043E-003  1.957577585094935E-003  2.005929751446759E-003  2.055476216307507E-003 
 2.106246478850305E-003  2.158270766877898E-003  2.211580054819781E-003  2.266206082173834E-003 
 2.322181372403516E-003  2.379539252301889E-003  2.438313871833748E-003  2.498540224467928E-003 
 2.560254168012316E-003  2.623492445962195E-003  2.688292709377637E-003  2.754693539299179E-003 
 2.822734469719816E-003  2.892456011121873E-003  2.963899674596777E-003  3.037107996559215E-003 
 3.112124564074216E-003  3.188994040806922E-003  3.267762193614797E-003  3.348475919797187E-003 
 3.431183275016101E-003  3.515933501908989E-003  3.602777059406178E-003  3.691765652773478E-003 
 3.782952264397031E-003  3.876391185327486E-003  3.972138047605211E-003  4.070249857380945E-003 
 4.170785028858234E-003  4.273803419071083E-003  4.379366363522180E-003  4.487536712701237E-003 
 4.598378869504893E-003  4.711958827581632E-003  4.828344210622917E-003  4.947604312625199E-003 
 5.069810139147195E-003  5.195034449584164E-003  5.323351800488923E-003  5.454838589960855E-003 
 5.589573103132907E-003  5.727635558780264E-003  5.869108157082139E-003  6.014075128562097E-003 
 6.162622784237630E-003  6.314839567008266E-003  6.470816104313461E-003  6.630645262090013E-003 
 6.794422200063427E-003  6.962244428405190E-003  7.134211865786682E-003  7.310426898871717E-003 
 7.490994443273803E-003  7.676022006022533E-003  7.865619749571328E-003  8.059900557385787E-003 
 8.258980101153184E-003  8.462976909651629E-003  8.672012439320162E-003  8.886211146571218E-003 
 9.105700561891644E-003  9.330611365770234E-003  9.561077466504857E-003  9.797236079927586E-003 
 1.003922781110165E-002  1.028719673803597E-002  1.054129049746539E-002  1.080166037275275E-002 
 1.106846138395984E-002  1.134185238014364E-002  1.162199613393319E-002  1.190905943844133E-002 
 1.220321320657075E-002  1.250463257277326E-002  1.281349699732071E-002  1.312999037315436E-002 
 1.345430113537148E-002  1.378662237341512E-002  1.412715194603828E-002  1.447609259910563E-002 
 1.483365208630337E-002  1.520004329283522E-002  1.557548436216809E-002  1.596019882591368E-002 
 1.635441573691376E-002  1.675836980561550E-002  1.717230153981427E-002  1.759645738784757E-002 
 1.803108988532738E-002  1.847645780549498E-002  1.893282631329082E-002  1.940046712322914E-002 
 1.987965866117287E-002  2.037068623010377E-002  2.087384217998739E-002  2.138942608183305E-002 
 2.191774490605433E-002  2.245911320523377E-002  2.301385330140320E-002  2.358229547794786E-002 
 2.416477817625319E-002  2.476164819720732E-002  2.537326090767738E-002  2.599998045209696E-002 
 2.664217996926353E-002  2.730024181450479E-002  2.797455778732223E-002  2.866552936466878E-002 
 2.937356793997735E-002  3.009909506809423E-002  3.084254271627587E-002  3.160435352136854E-002 
 3.238498105334664E-002  3.318489008536333E-002  3.400455687047207E-002  3.484446942517285E-002 
 3.570512781997578E-002  3.658704447712852E-002  3.749074447571246E-002  3.841676586426384E-002 
 3.936565998111009E-002  4.033799178264347E-002  4.133434017967597E-002  4.235529838211451E-002 
 4.340147425215179E-002  4.447349066618003E-002  4.557198588563506E-002  4.669761393700997E-002 
 4.785104500125532E-002  4.903296581278558E-002  5.024408006836029E-002  5.148510884604961E-002 
 5.275679103454788E-002  5.405988377310112E-002  5.539516290229502E-002  5.676342342598129E-002 
 5.816547998460383E-002  5.960216734022453E-002  6.107434087352696E-002  6.258287709310313E-002 
 6.412867415730344E-002  6.571265240898971E-002  6.733575492349055E-002  6.899894807010143E-002 
 7.070322208743153E-002  7.244959167299291E-002  7.423909658731477E-002  7.607280227302231E-002 
 7.795180048916549E-002  7.987720996124660E-002  8.185017704729086E-002  8.387187642035757E-002 
 8.594351176794096E-002  8.806631650860945E-002  9.024155452637153E-002  9.247052092317311E-002 
 9.475454278997546E-002  9.709497999688693E-002  9.949322600281230E-002  1.019507086850805E-001 
 1.044688911896027E-001  1.070492728019847E-001  1.096933898401947E-001  1.124028165692461E-001 
 1.151791661385077E-001  1.180240915421290E-001  1.209392866032197E-001  1.239264869823190E-001 
 1.269874712107820E-001  1.301240617496882E-001  1.333381260749048E-001  1.366315777889553E-001 
 1.400063777603427E-001  1.434645352910234E-001  1.470081093127116E-001  1.506392096127367E-001 
 1.543599980901694E-001  1.581726900429984E-001  1.620795554870589E-001  1.660829205075890E-001 
 1.701851686441280E-001  1.743887423096384E-001  1.786961442446850E-001  1.831099390075295E-001 
 1.876327545010161E-001  1.922672835371901E-001  1.970162854405585E-001  2.018825876909415E-001 
 2.068690876069062E-001  2.119787540707970E-001  2.172146292963466E-001  2.225798306399646E-001 
 2.280775524567739E-001  2.337110680024546E-001  2.394837313821147E-001  2.453989795472420E-001 
 2.514603343420745E-001  2.576714046003262E-001  2.640358882939365E-001  2.705575747348205E-001 
 2.772403468307610E-001  2.840881833974683E-001  2.911051615273944E-001  2.982954590171313E-001 
 3.056633568548334E-001  3.132132417691512E-001  3.209496088408491E-001  3.288770641792290E-001 
 3.370003276644577E-001  3.453242357577754E-001  3.538537443809750E-001  3.625939318672022E-001 
 3.715500019843217E-001  3.807272870333359E-001  3.901312510230550E-001  3.997674929233092E-001 
 4.096417499985343E-001  4.197599012234877E-001  4.301279707837047E-001  4.407521316620627E-001 
 4.516387093141113E-001  4.627941854341704E-001  4.742252018143924E-001  4.859385642992272E-001 
 4.979412468374134E-001  5.102403956343029E-001  5.228433334064689E-001  5.357575637415996E-001 
 5.489907755660197E-001  5.625508477225001E-001  5.764458536612330E-001  5.906840662466840E-001 
 6.052739626829762E-001  6.202242295612272E-001  6.355437680313980E-001  6.512416991017773E-001 
 6.673273690695912E-001  6.838103550856172E-001  7.007004708562176E-001  7.180077724863809E-001 
 7.357425644667709E-001  7.539154058091022E-001  7.725371163326005E-001  7.916187831060120E-001 
 8.111717670487243E-001  8.312077096948294E-001  8.517385401243028E-001  8.727764820653708E-001 
 8.943340611723867E-001  9.164241124833393E-001  9.390597880616776E-001  9.622545648267959E-001 
 9.860222525780339E-001  1.010377002216707E+000  1.035333314171460E+000  1.060906047031484E+000 
 1.087110426393159E+000  1.113962053925075E+000  1.141476916657021E+000  1.169671396498454E+000 
 1.198562279991962E+000  1.228166768307777E+000  1.258502487484966E+000  1.289587498925849E+000 
 1.321440310149322E+000  1.354079885810014E+000  1.387525658989508E+000  1.421797542766548E+000 
 1.456915942072893E+000  1.492901765842096E+000  1.529776439458396E+000  1.567561917513009E+000 
 1.606280696875582E+000  1.645955830088414E+000  1.686610939091589E+000  1.728270229287141E+000 
 1.770958503950537E+000  1.814701178998111E+000  1.859524298119374E+000
    </PP_RAB>
  </PP_MESH>
  <PP_LOCAL type="real" size="563" columns="4">
-1.635102044550180E+001 -1.635102053172200E+001 -1.635102061595480E+001 -1.635102069825300E+001 
-1.635102077866780E+001 -1.635102085724960E+001 -1.635102093404800E+001 -1.635102100911140E+001 
-1.635102108248760E+001 -1.635102115422320E+001 -1.635102122436440E+001 -1.635102129295600E+001 