<PP_INFO>
Generated using Andrea Dal Corso code (rrkj3)
Author: Andrea Dal Corso   Generation date: unknown
Info:   Ag PBE 4d10 5s1 5p0 RRKJ3 Ultrasoft
    1        The Pseudo was generated with a Scalar-Relativistic Calculation
  2.30000000000E+00    Local Potential cutoff radius
nl pn  l   occ               Rcut            Rcut US             E pseu
5P  2  1  0.00      2.50000000000      2.50000000000      0.00000000000
4D  3  2 10.00      1.80000000000      2.40000000000      0.00000000000
4D  3  2  0.00      1.80000000000      2.40000000000      0.00000000000
5S  1  0  1.00      2.30000000000      2.30000000000      0.00000000000
</PP_INFO>


<PP_HEADER>
   0                   Version Number
  Ag                   Element
   US                  Ultrasoft pseudopotential
    F                  Nonlinear Core Correction
 SLA  PW   PBE  PBE    PBE  Exchange-Correlation functional
   11.00000000000      Z valence
  -73.44129331100      Total energy
  0.0000000  0.0000000 Suggested cutoff for wfc and rho
    2                  Max angular momentum component
 1495                  Number of points in mesh
    2    3             Number of Wavefunctions, Number of Projectors
 Wavefunctions         nl  l   occ
                       4d  2 10.00
                       5s  0  1.00
</PP_HEADER>


<PP_MESH>
  <PP_R>
  1.94017439480E-05  1.95967347164E-05  1.97936851746E-05  1.99926150178E-05
  2.01935441392E-05  2.03964926318E-05  2.06014807907E-05  2.08085291148E-05
  2.10176583092E-05  2.12288892869E-05  2.14422431712E-05  2.16577412978E-05
  2.18754052165E-05  2.20952566939E-05  2.23173177155E-05  2.25416104874E-05
  2.27681574391E-05  2.29969812256E-05  2.32281047294E-05  2.34615510629E-05
  2.36973435712E-05  2.39355058335E-05  2.41760616664E-05  2.44190351256E-05
  2.46644505086E-05  2.49123323573E-05  2.51627054599E-05  2.54155948541E-05
  2.56710258289E-05  2.59290239277E-05  2.61896149505E-05  2.64528249566E-05
  2.67186802673E-05  2.69872074682E-05  2.72584334124E-05  2.75323852227E-05
  2.78090902944E-05  2.80885762983E-05  2.83708711833E-05  2.86560031790E-05
  2.89440007989E-05  2.92348928430E-05  2.95287084008E-05  2.98254768540E-05
  3.01252278797E-05  3.04279914534E-05  3.07337978515E-05  3.10426776550E-05
  3.13546617522E-05  3.16697813417E-05  3.19880679357E-05  3.23095533631E-05
  3.26342697729E-05  3.29622496367E-05  3.32935257531E-05  3.36281312497E-05
  3.39660995875E-05  3.43074645635E-05  3.46522603146E-05  3.50005213207E-05
  3.53522824080E-05  3.57075787530E-05  3.60664458856E-05  3.64289196929E-05
  3.67950364225E-05  3.71648326864E-05  3.75383454646E-05  3.79156121085E-05
  3.82966703453E-05  3.86815582811E-05  3.90703144049E-05  3.94629775927E-05
  3.98595871111E-05  4.02601826215E-05  4.06648041837E-05  4.10734922602E-05
  4.14862877201E-05  4.19032318434E-05  4.23243663248E-05  4.27497332781E-05
  4.31793752403E-05  4.36133351761E-05  4.40516564817E-05  4.44943829897E-05
  4.49415589730E-05  4.53932291497E-05  4.58494386872E-05  4.63102332067E-05
  4.67756587881E-05  4.72457619744E-05  4.77205897763E-05  4.82001896769E-05
  4.86846096366E-05  4.91738980979E-05  4.96681039900E-05  5.01672767338E-05
  5.06714662472E-05  5.11807229494E-05  5.16950977665E-05  5.22146421365E-05
  5.27394080142E-05  5.32694478766E-05  5.38048147283E-05  5.43455621062E-05
  5.48917440857E-05  5.54434152853E-05  5.60006308726E-05  5.65634465697E-05
  5.71319186586E-05  5.77061039869E-05  5.82860599738E-05  5.88718446152E-05
  5.94635164901E-05  6.00611347663E-05  6.06647592059E-05  6.12744501721E-05
  6.18902686343E-05  6.25122761750E-05  6.31405349953E-05  6.37751079218E-05
  6.44160584123E-05  6.50634505622E-05  6.57173491114E-05  6.63778194503E-05
  6.70449276265E-05  6.77187403513E-05  6.83993250065E-05  6.90867496513E-05
  6.97810830286E-05  7.04823945723E-05  7.11907544143E-05  7.19062333910E-05
  7.26289030510E-05  7.33588356618E-05  7.40961042173E-05  7.48407824449E-05
  7.55929448132E-05  7.63526665390E-05  7.71200235950E-05  7.78950927177E-05
  7.86779514145E-05  7.94686779721E-05  8.02673514637E-05  8.10740517573E-05
  8.18888595236E-05  8.27118562442E-05  8.35431242193E-05  8.43827465764E-05
  8.52308072785E-05  8.60873911324E-05  8.69525837971E-05  8.78264717927E-05
  8.87091425086E-05  8.96006842127E-05  9.05011860599E-05  9.14107381011E-05
  9.23294312923E-05  9.32573575036E-05  9.41946095283E-05  9.51412810925E-05
  9.60974668641E-05  9.70632624624E-05  9.80387644679E-05  9.90240704316E-05
  1.00019278885E-04  1.01024489349E-04  1.02039802347E-04  1.03065319410E-04
  1.04101143090E-04  1.05147376972E-04  1.06204125679E-04  1.07271494887E-04
  1.08349591334E-04  1.09438522830E-04  1.10538398270E-04  1.11649327642E-04
  1.12771422040E-04  1.13904793674E-04  1.15049555882E-04  1.16205823141E-04
  1.17373711080E-04  1.18553336488E-04  1.19744817328E-04  1.20948272749E-04
  1.22163823099E-04  1.23391589933E-04  1.24631696028E-04  1.25884265397E-04
  1.27149423298E-04  1.28427296247E-04  1.29718012032E-04  1.31021699727E-04
  1.32338489701E-04  1.33668513634E-04  1.35011904530E-04  1.36368796729E-04
  1.37739325921E-04  1.39123629161E-04  1.40521844879E-04  1.41934112899E-04
  1.43360574449E-04  1.44801372175E-04  1.46256650159E-04  1.47726553931E-04
  1.49211230481E-04  1.50710828278E-04  1.52225497283E-04  1.53755388965E-04
  1.55300656315E-04  1.56861453859E-04  1.58437937679E-04  1.60030265425E-04
  1.61638596331E-04  1.63263091232E-04  1.64903912577E-04  1.66561224452E-04
  1.68235192587E-04  1.69925984382E-04  1.71633768917E-04  1.73358716972E-04
  1.75101001043E-04  1.76860795360E-04  1.78638275904E-04  1.80433620425E-04
  1.82247008457E-04  1.84078621343E-04  1.85928642244E-04  1.87797256164E-04
  1.89684649967E-04  1.91591012392E-04  1.93516534079E-04  1.95461407580E-04
  1.97425827384E-04  1.99409989936E-04  2.01414093653E-04  2.03438338948E-04
  2.05482928245E-04  2.07548066007E-04  2.09633958749E-04  2.11740815061E-04
  2.13868845631E-04  2.16018263263E-04  2.18189282902E-04  2.20382121651E-04
  2.22596998796E-04  2.24834135827E-04  2.27093756458E-04  2.29376086654E-04
  2.31681354650E-04  2.34009790975E-04  2.36361628473E-04  2.38737102332E-04
  2.41136450099E-04  2.43559911713E-04  2.46007729521E-04  2.48480148306E-04
  2.50977415314E-04  2.53499780272E-04  2.56047495420E-04  2.58620815530E-04
  2.61219997938E-04  2.63845302563E-04  2.66496991938E-04  2.69175331234E-04
  2.71880588288E-04  2.74613033627E-04  2.77372940499E-04  2.80160584895E-04
  2.82976245584E-04  2.85820204133E-04  2.88692744940E-04  2.91594155263E-04
  2.94524725244E-04  2.97484747943E-04  3.00474519365E-04  3.03494338489E-04
  3.06544507300E-04  3.09625330817E-04  3.12737117126E-04  3.15880177406E-04
  3.19054825968E-04  3.22261380278E-04  3.25500160994E-04  3.28771491998E-04
  3.32075700425E-04  3.35413116699E-04  3.38784074564E-04  3.42188911119E-04
  3.45627966850E-04  3.49101585666E-04  3.52610114931E-04  3.56153905502E-04
  3.59733311760E-04  3.63348691649E-04  3.67000406709E-04  3.70688822117E-04
  3.74414306715E-04  3.78177233057E-04  3.81977977436E-04  3.85816919932E-04
  3.89694444441E-04  3.93610938720E-04  3.97566794420E-04  4.01562407131E-04
  4.05598176417E-04  4.09674505859E-04  4.13791803093E-04  4.17950479852E-04
  4.22150952008E-04  4.26393639610E-04  4.30678966932E-04  4.35007362509E-04
  4.39379259185E-04  4.43795094154E-04  4.48255309001E-04  4.52760349753E-04
  4.57310666917E-04  4.61906715529E-04  4.66548955197E-04  4.71237850150E-04
  4.75973869280E-04  4.80757486194E-04  4.85589179257E-04  4.90469431643E-04
  4.95398731381E-04  5.00377571404E-04  5.05406449602E-04  5.10485868866E-04
  5.15616337142E-04  5.20798367482E-04  5.26032478092E-04  5.31319192389E-04
  5.36659039047E-04  5.42052552057E-04  5.47500270774E-04  5.53002739974E-04
  5.58560509908E-04  5.64174136359E-04  5.69844180694E-04  5.75571209922E-04
  5.81355796751E-04  5.87198519644E-04  5.93099962878E-04  5.99060716602E-04
  6.05081376898E-04  6.11162545835E-04  6.17304831536E-04  6.23508848235E-04
  6.29775216338E-04  6.36104562488E-04  6.42497519624E-04  6.48954727047E-04
  6.55476830484E-04  6.62064482150E-04  6.68718340816E-04  6.75439071874E-04
  6.82227347401E-04  6.89083846232E-04  6.96009254022E-04  7.03004263317E-04
  7.10069573624E-04  7.17205891480E-04  7.24413930523E-04  7.31694411563E-04
  7.39048062654E-04  7.46475619167E-04  7.53977823864E-04  7.61555426971E-04
  7.69209186256E-04  7.76939867101E-04  7.84748242580E-04  7.92635093537E-04
  8.00601208663E-04  8.08647384578E-04  8.16774425905E-04  8.24983145356E-04
  8.33274363808E-04  8.41648910391E-04  8.50107622567E-04  8.58651346213E-04
  8.67280935710E-04  8.75997254023E-04  8.84801172791E-04  8.93693572414E-04
  9.02675342139E-04  9.11747380150E-04  9.20910593659E-04  9.30165898995E-04
  9.39514221696E-04  9.48956496602E-04  9.58493667948E-04  9.68126689460E-04
  9.77856524448E-04  9.87684145903E-04  9.97610536595E-04  1.00763668917E-03
  1.01776360626E-03  1.02799230055E-03  1.03832379494E-03  1.04875912256E-03
  1.05929932698E-03  1.06994546220E-03  1.08069859287E-03  1.09155979430E-03
  1.10253015261E-03  1.11361076486E-03  1.12480273911E-03  1.13610719458E-03
  1.14752526171E-03  1.15905808232E-03  1.17070680971E-03  1.18247260875E-03
  1.19435665605E-03  1.20636014000E-03  1.21848426097E-03  1.23073023138E-03
  1.24309927584E-03  1.25559263126E-03  1.26821154700E-03  1.28095728494E-03
  1.29383111969E-03  1.30683433862E-03  1.31996824207E-03  1.33323414345E-03
  1.34663336935E-03  1.36016725972E-03  1.37383716794E-03  1.38764446102E-03
  1.40159051971E-03  1.41567673862E-03  1.42990452638E-03  1.44427530578E-03
  1.45879051392E-03  1.47345160233E-03  1.48826003712E-03  1.50321729916E-03
  1.51832488418E-03  1.53358430295E-03  1.54899708143E-03  1.56456476092E-03
  1.58028889818E-03  1.59617106565E-03  1.61221285155E-03  1.62841586008E-03
  1.64478171156E-03  1.66131204258E-03  1.67800850618E-03  1.69487277204E-03
  1.71190652659E-03  1.72911147321E-03  1.74648933242E-03  1.76404184202E-03
  1.78177075728E-03  1.79967785110E-03  1.81776491420E-03  1.83603375531E-03
  1.85448620132E-03  1.87312409750E-03  1.89194930765E-03  1.91096371430E-03
  1.93016921892E-03  1.94956774207E-03  1.96916122362E-03  1.98895162294E-03
  2.00894091907E-03  2.02913111097E-03  2.04952421767E-03  2.07012227850E-03
  2.09092735328E-03  2.11194152255E-03  2.13316688772E-03  2.15460557136E-03
  2.17625971735E-03  2.19813149113E-03  2.22022307989E-03  2.24253669281E-03
  2.26507456126E-03  2.28783893906E-03  2.31083210266E-03  2.33405635139E-03
  2.35751400771E-03  2.38120741739E-03  2.40513894980E-03  2.42931099810E-03
  2.45372597953E-03  2.47838633561E-03  2.50329453238E-03  2.52845306069E-03
  2.55386443641E-03  2.57953120071E-03  2.60545592028E-03  2.63164118761E-03
  2.65808962125E-03  2.68480386606E-03  2.71178659351E-03  2.73904050187E-03
  2.76656831656E-03  2.79437279039E-03  2.82245670383E-03  2.85082286529E-03
  2.87947411142E-03  2.90841330735E-03  2.93764334704E-03  2.96716715351E-03
  2.99698767917E-03  3.02710790610E-03  3.05753084633E-03  3.08825954220E-03
  3.11929706660E-03  3.15064652331E-03  3.18231104729E-03  3.21429380503E-03
  3.24659799483E-03  3.27922684713E-03  3.31218362485E-03  3.34547162369E-03
  3.37909417249E-03  3.41305463351E-03  3.44735640285E-03  3.48200291070E-03
  3.51699762174E-03  3.55234403547E-03  3.58804568657E-03  3.62410614522E-03
  3.66052901751E-03  3.69731794575E-03  3.73447660887E-03  3.77200872276E-03
  3.80991804067E-03  3.84820835356E-03  3.88688349048E-03  3.92594731900E-03
  3.96540374552E-03  4.00525671572E-03  4.04551021493E-03  4.08616826853E-03
  4.12723494236E-03  4.16871434313E-03  4.21061061880E-03  4.25292795905E-03
  4.29567059563E-03  4.33884280286E-03  4.38244889798E-03  4.42649324164E-03
  4.47098023831E-03  4.51591433674E-03  4.56130003036E-03  4.60714185779E-03
  4.65344440324E-03  4.70021229701E-03  4.74745021592E-03  4.79516288382E-03
  4.84335507200E-03  4.89203159972E-03  4.94119733468E-03  4.99085719349E-03
  5.04101614217E-03  5.09167919668E-03  5.14285142334E-03  5.19453793943E-03
  5.24674391365E-03  5.29947456663E-03  5.35273517148E-03  5.40653105431E-03
  5.46086759476E-03  5.51575022651E-03  5.57118443788E-03  5.62717577234E-03
  5.68372982906E-03  5.74085226350E-03  5.79854878796E-03  5.85682517212E-03
  5.91568724368E-03  5.97514088890E-03  6.03519205319E-03  6.09584674171E-03
  6.15711101998E-03  6.21899101449E-03  6.28149291328E-03  6.34462296659E-03
  6.40838748749E-03  6.47279285248E-03  6.53784550215E-03  6.60355194182E-03
  6.66991874218E-03  6.73695253998E-03  6.80466003864E-03  6.87304800898E-03
  6.94212328985E-03  7.01189278883E-03  7.08236348294E-03  7.15354241929E-03
  7.22543671585E-03  7.29805356210E-03  7.37140021979E-03  7.44548402364E-03
  7.52031238210E-03  7.59589277807E-03  7.67223276964E-03  7.74933999088E-03
  7.82722215258E-03  7.90588704302E-03  7.98534252875E-03  8.06559655539E-03
  8.14665714841E-03  8.22853241393E-03  8.31123053954E-03  8.39475979514E-03
  8.47912853371E-03  8.56434519221E-03  8.65041829235E-03  8.73735644154E-03
  8.82516833365E-03  8.91386274995E-03  9.00344855995E-03  9.09393472231E-03
  9.18533028573E-03  9.27764438982E-03  9.37088626609E-03  9.46506523879E-03
  9.56019072590E-03  9.65627224005E-03  9.75331938947E-03  9.85134187896E-03
  9.95034951085E-03  1.00503521860E-02  1.01513599047E-02  1.02533827679E-02
  1.03564309779E-02  1.04605148396E-02  1.05656447615E-02  1.06718312567E-02
  1.07790849439E-02  1.08874165486E-02  1.09968369041E-02  1.11073569524E-02
  1.12189877456E-02  1.13317404470E-02  1.14456263318E-02  1.15606567888E-02
  1.16768433211E-02  1.17941975475E-02  1.19127312035E-02  1.20324561425E-02
  1.21533843372E-02  1.22755278804E-02  1.23988989867E-02  1.25235099932E-02
  1.26493733611E-02  1.27765016769E-02  1.29049076535E-02  1.30346041316E-02
  1.31656040810E-02  1.32979206018E-02  1.34315669257E-02  1.35665564175E-02
  1.37029025762E-02  1.38406190367E-02  1.39797195705E-02  1.41202180880E-02
  1.42621286391E-02  1.44054654149E-02  1.45502427492E-02  1.46964751199E-02
  1.48441771504E-02  1.49933636110E-02  1.51440494205E-02  1.52962496475E-02
  1.54499795122E-02  1.56052543878E-02  1.57620898017E-02  1.59205014378E-02
  1.60805051374E-02  1.62421169008E-02  1.64053528894E-02  1.65702294271E-02
  1.67367630014E-02  1.69049702660E-02  1.70748680418E-02  1.72464733185E-02
  1.74198032570E-02  1.75948751903E-02  1.77717066258E-02  1.79503152467E-02
  1.81307189142E-02  1.83129356686E-02  1.84969837319E-02  1.86828815089E-02
  1.88706475897E-02  1.90603007510E-02  1.92518599582E-02  1.94453443675E-02
  1.96407733274E-02  1.98381663810E-02  2.00375432677E-02  2.02389239255E-02
  2.04423284926E-02  2.06477773095E-02  2.08552909214E-02  2.10648900798E-02
  2.12765957447E-02  2.14904290869E-02  2.17064114899E-02  2.19245645522E-02
  2.21449100892E-02  2.23674701357E-02  2.25922669478E-02  2.28193230054E-02
  2.30486610144E-02  2.32803039086E-02  2.35142748527E-02  2.37505972438E-02
  2.39892947145E-02  2.42303911346E-02  2.44739106140E-02  2.47198775049E-02
  2.49683164041E-02  2.52192521558E-02  2.54727098537E-02  2.57287148438E-02
  2.59872927268E-02  2.62484693608E-02  2.65122708636E-02  2.67787236155E-02
  2.70478542622E-02  2.73196897168E-02  2.75942571631E-02  2.78715840582E-02
  2.81516981348E-02  2.84346274048E-02  2.87204001612E-02  2.90090449815E-02
  2.93005907306E-02  2.95950665631E-02  2.98925019269E-02  3.01929265658E-02
  3.04963705226E-02  3.08028641418E-02  3.11124380731E-02  3.14251232741E-02
  3.17409510136E-02  3.20599528747E-02  3.23821607578E-02  3.27076068840E-02
  3.30363237981E-02  3.33683443721E-02  3.37037018084E-02  3.40424296429E-02
  3.43845617488E-02  3.47301323395E-02  3.50791759723E-02  3.54317275520E-02
  3.57878223340E-02  3.61474959281E-02  3.65107843018E-02  3.68777237844E-02
  3.72483510701E-02  3.76227032220E-02  3.80008176755E-02  3.83827322425E-02
  3.87684851147E-02  3.91581148677E-02  3.95516604648E-02  3.99491612609E-02
  4.03506570065E-02  4.07561878514E-02  4.11657943490E-02  4.15795174603E-02
  4.19973985581E-02  4.24194794307E-02  4.28458022866E-02  4.32764097584E-02
  4.37113449073E-02  4.41506512271E-02  4.45943726488E-02  4.50425535450E-02
  4.54952387340E-02  4.59524734848E-02  4.64143035212E-02  4.68807750267E-02
  4.73519346488E-02  4.78278295038E-02  4.83085071815E-02  4.87940157503E-02
  4.92844037613E-02  4.97797202537E-02  5.02800147597E-02  5.07853373090E-02
  5.12957384344E-02  5.18112691764E-02  5.23319810884E-02  5.28579262422E-02
  5.33891572327E-02  5.39257271834E-02  5.44676897517E-02  5.50150991344E-02
  5.55680100728E-02  5.61264778586E-02  5.66905583389E-02  5.72603079223E-02
  5.78357835842E-02  5.84170428727E-02  5.90041439141E-02  5.95971454191E-02
  6.01961066883E-02  6.08010876184E-02  6.14121487078E-02  6.20293510633E-02
  6.26527564056E-02  6.32824270758E-02  6.39184260414E-02  6.45608169029E-02
  6.52096638999E-02  6.58650319175E-02  6.65269864933E-02  6.71955938232E-02
  6.78709207684E-02  6.85530348623E-02  6.92420043168E-02  6.99378980294E-02
  7.06407855901E-02  7.13507372883E-02  7.20678241196E-02  7.27921177934E-02
  7.35236907396E-02  7.42626161162E-02  7.50089678163E-02  7.57628204756E-02
  7.65242494802E-02  7.72933309735E-02  7.80701418642E-02  7.88547598343E-02
  7.96472633460E-02  8.04477316504E-02  8.12562447950E-02  8.20728836319E-02
  8.28977298254E-02  8.37308658611E-02  8.45723750531E-02  8.54223415531E-02
  8.62808503584E-02  8.71479873207E-02  8.80238391543E-02  8.89084934452E-02
  8.98020386595E-02  9.07045641525E-02  9.16161601776E-02  9.25369178950E-02
  9.34669293813E-02  9.44062876384E-02  9.53550866029E-02  9.63134211556E-02
  9.72813871307E-02  9.82590813255E-02  9.92466015104E-02  1.00244046438E-01
  1.01251515854E-01  1.02269110506E-01  1.03296932154E-01  1.04335083581E-01
  1.05383668604E-01  1.06442792082E-01  1.07512559927E-01  1.08593079118E-01
  1.09684457707E-01  1.10786804834E-01  1.11900230733E-01  1.13024846749E-01
  1.14160765343E-01  1.15308100109E-01  1.16466965781E-01  1.17637478247E-01
  1.18819754559E-01  1.20013912945E-01  1.21220072823E-01  1.22438354809E-01
  1.23668880732E-01  1.24911773646E-01  1.26167157842E-01  1.27435158859E-01
  1.28715903498E-01  1.30009519835E-01  1.31316137232E-01  1.32635886352E-01
  1.33968899171E-01  1.35315308992E-01  1.36675250456E-01  1.38048859559E-01
  1.39436273664E-01  1.40837631512E-01  1.42253073240E-01  1.43682740394E-01
  1.45126775942E-01  1.46585324289E-01  1.48058531290E-01  1.49546544268E-01
  1.51049512025E-01  1.52567584858E-01  1.54100914578E-01  1.55649654517E-01
  1.57213959552E-01  1.58793986113E-01  1.60389892206E-01  1.62001837421E-01
  1.63629982955E-01  1.65274491624E-01  1.66935527879E-01  1.68613257827E-01
  1.70307849240E-01  1.72019471581E-01  1.73748296012E-01  1.75494495418E-01
  1.77258244419E-01  1.79039719392E-01  1.80839098487E-01  1.82656561642E-01
  1.84492290606E-01  1.86346468952E-01  1.88219282100E-01  1.90110917334E-01
  1.92021563818E-01  1.93951412618E-01  1.95900656721E-01  1.97869491053E-01
  1.99858112499E-01  2.01866719923E-01  2.03895514186E-01  2.05944698172E-01
  2.08014476798E-01  2.10105057046E-01  2.12216647975E-01  2.14349460745E-01
  2.16503708640E-01  2.18679607086E-01  2.20877373675E-01  2.23097228186E-01
  2.25339392605E-01  2.27604091151E-01  2.29891550296E-01  2.32201998788E-01
  2.34535667673E-01  2.36892790321E-01  2.39273602444E-01  2.41678342128E-01
  2.44107249847E-01  2.46560568494E-01  2.49038543404E-01  2.51541422375E-01
  2.54069455699E-01  2.56622896180E-01  2.59201999164E-01  2.61807022564E-01
  2.64438226885E-01  2.67095875248E-01  2.69780233422E-01  2.72491569844E-01
  2.75230155650E-01  2.77996264701E-01  2.80790173610E-01  2.83612161770E-01
  2.86462511383E-01  2.89341507486E-01  2.92249437980E-01  2.95186593662E-01
  2.98153268250E-01  3.01149758412E-01  3.04176363802E-01  3.07233387081E-01
  3.10321133955E-01  3.13439913201E-01  3.16590036699E-01  3.19771819465E-01
  3.22985579680E-01  3.26231638721E-01  3.29510321199E-01  3.32821954983E-01
  3.36166871240E-01  3.39545404464E-01  3.42957892511E-01  3.46404676634E-01
  3.49886101513E-01  3.53402515293E-01  3.56954269620E-01  3.60541719671E-01
  3.64165224195E-01  3.67825145544E-01  3.71521849714E-01  3.75255706380E-01
  3.79027088928E-01  3.82836374501E-01  3.86683944031E-01  3.90570182277E-01
  3.94495477867E-01  3.98460223333E-01  4.02464815154E-01  4.06509653792E-01
  4.10595143734E-01  4.14721693533E-01  4.18889715846E-01  4.23099627480E-01
  4.27351849430E-01  4.31646806920E-01  4.35984929451E-01  4.40366650838E-01
  4.44792409257E-01  4.49262647288E-01  4.53777811958E-01  4.58338354787E-01
  4.62944731834E-01  4.67597403740E-01  4.72296835775E-01  4.77043497888E-01
  4.81837864748E-01  4.86680415797E-01  4.91571635292E-01  4.96512012360E-01
  5.01502041044E-01  5.06542220350E-01  5.11633054299E-01  5.16775051981E-01
  5.21968727598E-01  5.27214600523E-01  5.32513195348E-01  5.37865041935E-01
  5.43270675476E-01  5.48730636536E-01  5.54245471117E-01  5.59815730708E-01
  5.65441972338E-01  5.71124758636E-01  5.76864657886E-01  5.82662244083E-01
  5.88518096990E-01  5.94432802197E-01  6.00406951179E-01  6.06441141357E-01
  6.12535976154E-01  6.18692065060E-01  6.24910023687E-01  6.31190473838E-01
  6.37534043562E-01  6.43941367221E-01  6.50413085554E-01  6.56949845738E-01
  6.63552301453E-01  6.70221112952E-01  6.76956947121E-01  6.83760477548E-01
  6.90632384593E-01  6.97573355452E-01  7.04584084227E-01  7.11665271999E-01
  7.18817626890E-01  7.26041864144E-01  7.33338706188E-01  7.40708882715E-01
  7.48153130747E-01  7.55672194715E-01  7.63266826533E-01  7.70937785670E-01
  7.78685839227E-01  7.86511762018E-01  7.94416336639E-01  8.02400353557E-01
  8.10464611179E-01  8.18609915937E-01  8.26837082369E-01  8.35146933198E-01
  8.43540299416E-01  8.52018020368E-01  8.60580943831E-01  8.69229926106E-01
  8.77965832098E-01  8.86789535405E-01  8.95701918404E-01  9.04703872342E-01
  9.13796297420E-01  9.22980102890E-01  9.32256207140E-01  9.41625537787E-01
  9.51089031772E-01  9.60647635454E-01  9.70302304699E-01  9.80054004983E-01
  9.89903711485E-01  9.99852409183E-01  1.00990109295E+00  1.02005076768E+00
  1.03030244833E+00  1.04065716008E+00  1.05111593842E+00  1.06167982922E+00
  1.07234988890E+00  1.08312718445E+00  1.09401279363E+00  1.10500780500E+00
  1.11611331807E+00  1.12733044340E+00  1.13866030271E+00  1.15010402901E+00
  1.16166276666E+00  1.17333767156E+00  1.18512991121E+00  1.19704066483E+00
  1.20907112352E+00  1.22122249033E+00  1.23349598040E+00  1.24589282110E+00
  1.25841425213E+00  1.27106152562E+00  1.28383590633E+00  1.29673867169E+00
  1.30977111201E+00  1.32293453053E+00  1.33623024360E+00  1.34965958081E+00
  1.36322388511E+00  1.37692451292E+00  1.39076283434E+00  1.40474023320E+00
  1.41885810725E+00  1.43311786830E+00  1.44752094233E+00  1.46206876966E+00
  1.47676280508E+00  1.49160451801E+00  1.50659539264E+00  1.52173692807E+00
  1.53703063845E+00  1.55247805318E+00  1.56808071701E+00  1.58384019022E+00
  1.59975804877E+00  1.61583588445E+00  1.63207530507E+00  1.64847793458E+00
  1.66504541326E+00  1.68177939786E+00  1.69868156181E+00  1.71575359533E+00
  1.73299720564E+00  1.75041411711E+00  1.76800607145E+00  1.78577482788E+00
  1.80372216327E+00  1.82184987239E+00  1.84015976801E+00  1.85865368114E+00
  1.87733346118E+00  1.89620097614E+00  1.91525811278E+00  1.93450677682E+00
  1.95394889315E+00  1.97358640600E+00  1.99342127914E+00  2.01345549606E+00
  2.03369106021E+00  2.05412999517E+00  2.07477434483E+00  2.09562617366E+00
  2.11668756685E+00  2.13796063056E+00  2.15944749212E+00  2.18115030022E+00
  2.20307122518E+00  2.22521245909E+00  2.24757621610E+00  2.27016473261E+00
  2.29298026748E+00  2.31602510229E+00  2.33930154153E+00  2.36281191289E+00
  2.38655856740E+00  2.41054387976E+00  2.43477024851E+00  2.45924009632E+00
  2.48395587019E+00  2.50892004172E+00  2.53413510734E+00  2.55960358858E+00
  2.58532803231E+00  2.61131101101E+00  2.63755512297E+00  2.66406299265E+00
  2.69083727085E+00  2.71788063502E+00  2.74519578952E+00  2.77278546588E+00
  2.80065242310E+00  2.82879944790E+00  2.85722935500E+00  2.88594498741E+00
  2.91494921673E+00  2.94424494340E+00  2.97383509702E+00  3.00372263663E+00
  3.03391055100E+00  3.06440185896E+00  3.09519960965E+00  3.12630688289E+00
  3.15772678942E+00  3.18946247126E+00  3.22151710200E+00  3.25389388714E+00
  3.28659606438E+00  3.31962690397E+00  3.35298970901E+00  3.38668781581E+00
  3.42072459423E+00  3.45510344795E+00  3.48982781489E+00  3.52490116753E+00
  3.56032701321E+00  3.59610889457E+00  3.63225038982E+00  3.66875511312E+00
  3.70562671500E+00  3.74286888264E+00  3.78048534028E+00  3.81847984961E+00
  3.85685621011E+00  3.89561825944E+00  3.93476987384E+00  3.97431496851E+00
  4.01425749799E+00  4.05460145657E+00  4.09535087866E+00  4.13650983926E+00
  4.17808245429E+00  4.22007288105E+00  4.26248531861E+00  4.30532400826E+00
  4.34859323389E+00  4.39229732247E+00  4.43644064445E+00  4.48102761418E+00
  4.52606269042E+00  4.57155037669E+00  4.61749522181E+00  4.66390182030E+00
  4.71077481286E+00  4.75811888682E+00  4.80593877664E+00  4.85423926434E+00
  4.90302518001E+00  4.95230140229E+00  5.00207285883E+00  5.05234452683E+00
  5.10312143349E+00  5.15440865655E+00  5.20621132477E+00  5.25853461846E+00
  5.31138376999E+00  5.36476406433E+00  5.41868083954E+00  5.47313948736E+00
  5.52814545368E+00  5.58370423915E+00  5.63982139971E+00  5.69650254710E+00
  5.75375334949E+00  5.81157953202E+00  5.86998687734E+00  5.92898122623E+00
  5.98856847820E+00  6.04875459200E+00  6.10954558630E+00  6.17094754025E+00
  6.23296659410E+00  6.29560894980E+00  6.35888087164E+00  6.42278868687E+00
  6.48733878632E+00  6.55253762505E+00  6.61839172301E+00  6.68490766565E+00
  6.75209210464E+00  6.81995175845E+00  6.88849341313E+00  6.95772392289E+00
  7.02765021084E+00  7.09827926967E+00  7.16961816234E+00  7.24167402280E+00
  7.31445405670E+00  7.38796554210E+00  7.46221583021E+00  7.53721234612E+00
  7.61296258955E+00  7.68947413558E+00  7.76675463543E+00  7.84481181722E+00
  7.92365348673E+00  8.00328752819E+00  8.08372190507E+00  8.16496466087E+00
  8.24702391995E+00  8.32990788830E+00  8.41362485437E+00  8.49818318994E+00
  8.58359135091E+00  8.66985787817E+00  8.75699139844E+00  8.84500062515E+00
  8.93389435929E+00  9.02368149031E+00  9.11437099701E+00  9.20597194839E+00
  9.29849350465E+00  9.39194491800E+00  9.48633553367E+00  9.58167479080E+00
  9.67797222339E+00  9.77523746128E+00  9.87348023105E+00  9.97271035707E+00
  1.00729377624E+01  1.01741724700E+01  1.02764246033E+01  1.03797043875E+01
  1.04840221509E+01  1.05893883253E+01  1.06958134472E+01  1.08033081595E+01
  1.09118832115E+01  1.10215494610E+01  1.11323178746E+01  1.12441995293E+01
  1.13572056133E+01  1.14713474273E+01  1.15866363857E+01  1.17030840173E+01
  1.18207019671E+01  1.19395019969E+01  1.20594959868E+01  1.21806959365E+01
  1.23031139658E+01  1.24267623168E+01  1.25516533544E+01  1.26777995678E+01
  1.28052135717E+01  1.29339081077E+01  1.30638960452E+01  1.31951903832E+01
  1.33278042513E+01  1.34617509109E+01  1.35970437568E+01  1.37336963184E+01
  1.38717222611E+01  1.40111353876E+01  1.41519496392E+01  1.42941790977E+01
  1.44378379859E+01  1.45829406700E+01  1.47295016604E+01  1.48775356131E+01
  1.50270573318E+01  1.51780817688E+01  1.53306240266E+01  1.54846993595E+01
  1.56403231754E+01  1.57975110365E+01  1.59562786620E+01  1.61166419285E+01
  1.62786168728E+01  1.64422196922E+01  1.66074667474E+01  1.67743745630E+01
  1.69429598301E+01  1.71132394073E+01  1.72852303227E+01  1.74589497755E+01
  1.76344151379E+01  1.78116439565E+01  1.79906539543E+01  1.81714630325E+01
  1.83540892721E+01  1.85385509360E+01  1.87248664704E+01  1.89130545070E+01
  1.91031338649E+01  1.92951235521E+01  1.94890427677E+01  1.96849109038E+01
  1.98827475474E+01  2.00825724824E+01  2.02844056913E+01  2.04882673577E+01
  2.06941778679E+01  2.09021578132E+01  2.11122279916E+01  2.13244094104E+01
  2.15387232880E+01  2.17551910558E+01  2.19738343609E+01  2.21946750677E+01
  2.24177352605E+01  2.26430372455E+01  2.28706035531E+01  2.31004569401E+01
  2.33326203921E+01  2.35671171255E+01  2.38039705904E+01  2.40432044721E+01
  2.42848426942E+01  2.45289094209E+01  2.47754290590E+01  2.50244262606E+01
  2.52759259257E+01  2.55299532045E+01  2.57865334998E+01  2.60456924700E+01
  2.63074560312E+01  2.65718503599E+01  2.68389018957E+01  2.71086373441E+01
  2.73810836788E+01  2.76562681448E+01  2.79342182605E+01  2.82149618214E+01
  2.84985269020E+01  2.87849418590E+01  2.90742353342E+01  2.93664362572E+01
  2.96615738482E+01  2.99596776214E+01  3.02607773873E+01  3.05649032561E+01
  3.08720856407E+01  3.11823552597E+01  3.14957431401E+01  3.18122806211E+01
  3.21319993567E+01  3.24549313189E+01  3.27811088014E+01  3.31105644221E+01
  3.34433311268E+01  3.37794421924E+01  3.41189312305E+01  3.44618321901E+01
  3.48081793616E+01  3.51580073801E+01  3.55113512286E+01  3.58682462418E+01
  3.62287281096E+01  3.65928328803E+01  3.69605969649E+01  3.73320571399E+01
  3.77072505517E+01  3.80862147201E+01  3.84689875416E+01  3.88556072940E+01
  3.92461126394E+01  3.96405426289E+01  4.00389367056E+01  4.04413347094E+01
  4.08477768803E+01  4.12583038630E+01  4.16729567104E+01  4.20917768882E+01
  4.25148062788E+01  4.29420871855E+01  4.33736623366E+01  4.38095748902E+01
  4.42498684377E+01  4.46945870089E+01  4.51437750761E+01  4.55974775585E+01
  4.60557398265E+01  4.65186077070E+01  4.69861274870E+01  4.74583459188E+01
  4.79353102249E+01  4.84170681019E+01  4.89036677260E+01  4.93951577577E+01
  4.98915873463E+01  5.03930061352E+01  5.08994642668E+01  5.14110123871E+01
  5.19277016516E+01  5.24495837295E+01  5.29767108095E+01  5.35091356047E+01
  5.40469113580E+01  5.45900918475E+01  5.51387313918E+01  5.56928848551E+01