<PP_INFO>
Generated using Vanderbilt code, version   7  3  5                              
Author: unknown    Generation date:   20    6 2004                              
Automatically converted from original format                                    
    1        The Pseudo was generated with a Scalar-Relativistic Calculation
  1.76534165215E+00    Local Potential cutoff radius
nl pn  l   occ               Rcut            Rcut US             E pseu
3S  3  0  2.00     10.00000000000      1.76534165215     -0.57289448352
3P  3  1  1.00     10.00000000000      1.76534165215     -0.20159623093
</PP_INFO>


<PP_HEADER>
   0                   Version Number
  Al                   Element
   US                  Ultrasoft pseudopotential
    T                  Nonlinear Core Correction
 SLA  PW   GGX  GGC    PW91 Exchange-Correlation functional
    3.00000000000      Z valence
  -12.24776820135      Total energy
  0.0000000  0.0000000 Suggested cutoff for wfc and rho
    1                  Max angular momentum component
  893                  Number of points in mesh
    2    2             Number of Wavefunctions, Number of Projectors
 Wavefunctions         nl  l   occ
                       3S  0  2.00
                       3P  1  1.00
</PP_HEADER>


<PP_MESH>
  <PP_R>
  0.00000000000E+00  1.17887612203E-06  2.37756482565E-06  3.59639908765E-06
  4.83571748095E-06  6.09586426862E-06  7.37718949954E-06  8.68004910562E-06
  1.00048050007E-05  1.13518251810E-05  1.27214838275E-05  1.41141614098E-05
  1.55302447916E-05  1.69701273385E-05  1.84342090273E-05  1.99228965567E-05
  2.14366034605E-05  2.29757502226E-05  2.45407643938E-05  2.61320807101E-05
  2.77501412143E-05  2.93953953778E-05  3.10683002264E-05  3.27693204666E-05
  3.44989286149E-05  3.62576051292E-05  3.80458385420E-05  3.98641255964E-05
  4.17129713838E-05  4.35928894843E-05  4.55044021095E-05  4.74480402474E-05
  4.94243438100E-05  5.14338617832E-05  5.34771523794E-05  5.55547831924E-05
  5.76673313553E-05  5.98153837006E-05  6.19995369233E-05  6.42203977467E-05
  6.64785830908E-05  6.87747202438E-05  7.11094470365E-05  7.34834120190E-05
  7.58972746413E-05  7.83517054364E-05  8.08473862063E-05  8.33850102118E-05
  8.59652823647E-05  8.85889194239E-05  9.12566501943E-05  9.39692157295E-05
  9.67273695372E-05  9.95318777891E-05  1.02383519533E-04  1.05283086911E-04
  1.08231385375E-04  1.11229233918E-04  1.14277465294E-04  1.17376926253E-04
  1.20528477778E-04  1.23732995318E-04  1.26991369039E-04  1.30304504066E-04
  1.33673320734E-04  1.37098754848E-04  1.40581757940E-04  1.44123297532E-04
  1.47724357408E-04  1.51385937887E-04  1.55109056097E-04  1.58894746262E-04
  1.62744059986E-04  1.66658066549E-04  1.70637853199E-04  1.74684525458E-04
  1.78799207428E-04  1.82983042103E-04  1.87237191686E-04  1.91562837912E-04
  1.95961182378E-04  2.00433446874E-04  2.04980873724E-04  2.09604726133E-04
  2.14306288533E-04  2.19086866944E-04  2.23947789335E-04  2.28890405994E-04
  2.33916089901E-04  2.39026237113E-04  2.44222267147E-04  2.49505623378E-04
  2.54877773440E-04  2.60340209631E-04  2.65894449329E-04  2.71542035414E-04
  2.77284536697E-04  2.83123548354E-04  2.89060692369E-04  2.95097617989E-04
  3.01236002175E-04  3.07477550074E-04  3.13823995489E-04  3.20277101362E-04
  3.26838660265E-04  3.33510494894E-04  3.40294458581E-04  3.47192435802E-04
  3.54206342708E-04  3.61338127651E-04  3.68589771727E-04  3.75963289330E-04
  3.83460728705E-04  3.91084172524E-04  3.98835738459E-04  4.06717579771E-04
  4.14731885913E-04  4.22880883131E-04  4.31166835089E-04  4.39592043493E-04
  4.48158848733E-04  4.56869630533E-04  4.65726808609E-04  4.74732843346E-04
  4.83890236478E-04  4.93201531785E-04  5.02669315798E-04  5.12296218516E-04
  5.22084914142E-04  5.32038121821E-04  5.42158606396E-04  5.52449179179E-04
  5.62912698728E-04  5.73552071644E-04  5.84370253375E-04  5.95370249044E-04
  6.06555114273E-04  6.17927956043E-04  6.29491933549E-04  6.41250259082E-04
  6.53206198919E-04  6.65363074230E-04  6.77724262004E-04  6.90293195984E-04
  7.03073367621E-04  7.16068327046E-04  7.29281684051E-04  7.42717109100E-04
  7.56378334341E-04  7.70269154647E-04  7.84393428668E-04  7.98755079905E-04
  8.13358097798E-04  8.28206538834E-04  8.43304527676E-04  8.58656258306E-04
  8.74265995193E-04  8.90138074476E-04  9.06276905167E-04  9.22686970379E-04
  9.39372828568E-04  9.56339114803E-04  9.73590542050E-04  9.91131902482E-04
  1.00896806881E-03  1.02710399565E-03  1.04554472086E-03  1.06429536700E-03
  1.08336114269E-03  1.10274734410E-03  1.12245935642E-03  1.14250265533E-03
  1.16288280855E-03  1.18360547735E-03  1.20467641817E-03  1.22610148418E-03
  1.24788662694E-03  1.27003789800E-03  1.29256145063E-03  1.31546354154E-03
  1.33875053255E-03  1.36242889243E-03  1.38650519865E-03  1.41098613922E-03
  1.43587851457E-03  1.46118923940E-03  1.48692534463E-03  1.51309397936E-03
  1.53970241280E-03  1.56675803637E-03  1.59426836569E-03  1.62224104269E-03
  1.65068383774E-03  1.67960465180E-03  1.70901151862E-03  1.73891260696E-03
  1.76931622287E-03  1.80023081199E-03  1.83166496191E-03  1.86362740454E-03
  1.89612701853E-03  1.92917283178E-03  1.96277402389E-03  1.99693992873E-03
  2.03168003706E-03  2.06700399912E-03  2.10292162736E-03  2.13944289913E-03
  2.17657795946E-03  2.21433712388E-03  2.25273088129E-03  2.29176989687E-03
  2.33146501505E-03  2.37182726250E-03  2.41286785122E-03  2.45459818162E-03
  2.49702984575E-03  2.54017463045E-03  2.58404452065E-03  2.62865170271E-03
  2.67400856782E-03  2.72012771539E-03  2.76702195659E-03  2.81470431790E-03
  2.86318804473E-03  2.91248660509E-03  2.96261369334E-03  3.01358323400E-03
  3.06540938560E-03  3.11810654463E-03  3.17168934952E-03  3.22617268473E-03
  3.28157168487E-03  3.33790173892E-03  3.39517849446E-03  3.45341786208E-03
  3.51263601976E-03  3.57284941735E-03  3.63407478120E-03  3.69632911875E-03
  3.75962972325E-03  3.82399417864E-03  3.88944036432E-03  3.95598646022E-03
  4.02365095180E-03  4.09245263517E-03  4.16241062237E-03  4.23354434662E-03
  4.30587356773E-03  4.37941837764E-03  4.45419920591E-03  4.53023682550E-03
  4.60755235844E-03  4.68616728177E-03  4.76610343347E-03  4.84738301855E-03
  4.93002861519E-03  5.01406318103E-03  5.09951005955E-03  5.18639298654E-03
  5.27473609671E-03  5.36456393038E-03  5.45590144029E-03  5.54877399857E-03
  5.64320740375E-03  5.73922788794E-03  5.83686212411E-03  5.93613723351E-03
  6.03708079319E-03  6.13972084370E-03  6.24408589680E-03  6.35020494346E-03
  6.45810746188E-03  6.56782342568E-03  6.67938331221E-03  6.79281811105E-03
  6.90815933260E-03  7.02543901683E-03  7.14468974218E-03  7.26594463462E-03
  7.38923737683E-03  7.51460221761E-03  7.64207398133E-03  7.77168807762E-03
  7.90348051123E-03  8.03748789202E-03  8.17374744513E-03  8.31229702131E-03
  8.45317510744E-03  8.59642083724E-03  8.74207400209E-03  8.89017506215E-03
  9.04076515756E-03  9.19388611986E-03  9.34958048365E-03  9.50789149835E-03
  9.66886314027E-03  9.83254012479E-03  9.99896791878E-03  1.01681927533E-02
  1.03402616362E-02  1.05152223657E-02  1.06931235430E-02  1.08740145862E-02
  1.10579457441E-02  1.12449681098E-02  1.14351336352E-02  1.16284951452E-02
  1.18251063526E-02  1.20250218729E-02  1.22282972395E-02  1.24349889191E-02
  1.26451543274E-02  1.28588518449E-02  1.30761408335E-02  1.32970816527E-02
  1.35217356762E-02  1.37501653095E-02  1.39824340067E-02  1.42186062883E-02
  1.44587477594E-02  1.47029251273E-02  1.49512062208E-02  1.52036600083E-02
  1.54603566176E-02  1.57213673550E-02  1.59867647250E-02  1.62566224509E-02
  1.65310154949E-02  1.68100200790E-02  1.70937137064E-02  1.73821751826E-02
  1.76754846376E-02  1.79737235483E-02  1.82769747607E-02  1.85853225131E-02
  1.88988524597E-02  1.92176516942E-02  1.95418087739E-02  1.98714137446E-02
  2.02065581654E-02  2.05473351340E-02  2.08938393130E-02  2.12461669556E-02
  2.16044159330E-02  2.19686857611E-02  2.23390776283E-02  2.27156944236E-02
  2.30986407651E-02  2.34880230294E-02  2.38839493807E-02  2.42865298010E-02
  2.46958761209E-02  2.51121020503E-02  2.55353232102E-02  2.59656571647E-02
  2.64032234538E-02  2.68481436266E-02  2.73005412748E-02  2.77605420673E-02
  2.82282737851E-02  2.87038663567E-02  2.91874518941E-02  2.96791647299E-02
  3.01791414541E-02  3.06875209523E-02  3.12044444442E-02  3.17300555232E-02
  3.22645001956E-02  3.28079269218E-02  3.33604866570E-02  3.39223328938E-02
  3.44936217040E-02  3.50745117827E-02  3.56651644920E-02  3.62657439058E-02
  3.68764168557E-02  3.74973529770E-02  3.81287247558E-02  3.87707075774E-02
  3.94234797744E-02  4.00872226766E-02  4.07621206613E-02  4.14483612045E-02
  4.21461349330E-02  4.28556356773E-02  4.35770605255E-02  4.43106098781E-02
  4.50564875034E-02  4.58149005946E-02  4.65860598267E-02  4.73701794157E-02
  4.81674771775E-02  4.89781745889E-02  4.98024968489E-02  5.06406729411E-02
  5.14929356977E-02  5.23595218637E-02  5.32406721631E-02  5.41366313656E-02
  5.50476483545E-02  5.59739761958E-02  5.69158722089E-02  5.78735980376E-02
  5.88474197230E-02  5.98376077774E-02  6.08444372593E-02  6.18681878502E-02
  6.29091439317E-02  6.39675946651E-02  6.50438340712E-02  6.61381611123E-02
  6.72508797752E-02  6.83822991556E-02  6.95327335439E-02  7.07025025126E-02
  7.18919310051E-02  7.31013494258E-02  7.43310937320E-02  7.55815055274E-02
  7.68529321565E-02  7.81457268016E-02  7.94602485806E-02  8.07968626470E-02
  8.21559402909E-02  8.35378590427E-02  8.49430027777E-02  8.63717618225E-02
  8.78245330639E-02  8.93017200587E-02  9.08037331462E-02  9.23309895618E-02
  9.38839135534E-02  9.54629364987E-02  9.70684970252E-02  9.87010411325E-02
  1.00361022315E-01  1.02048901690E-01  1.03765148124E-01  1.05510238362E-01
  1.07284657163E-01  1.09088897433E-01  1.10923460361E-01  1.12788855559E-01
  1.14685601206E-01  1.16614224186E-01  1.18575260242E-01  1.20569254117E-01
  1.22596759713E-01  1.24658340237E-01  1.26754568364E-01  1.28886026394E-01
  1.31053306412E-01  1.33257010454E-01  1.35497750674E-01  1.37776149515E-01
  1.40092839879E-01  1.42448465307E-01  1.44843680154E-01  1.47279149773E-01
  1.49755550699E-01  1.52273570838E-01  1.54833909654E-01  1.57437278371E-01
  1.60084400163E-01  1.62776010357E-01  1.65512856643E-01  1.68295699271E-01
  1.71125311271E-01  1.74002478666E-01  1.76928000687E-01  1.79902689997E-01
  1.82927372919E-01  1.86002889661E-01  1.89130094553E-01  1.92309856284E-01
  1.95543058142E-01  1.98830598258E-01  2.02173389859E-01  2.05572361520E-01
  2.09028457423E-01  2.12542637614E-01  2.16115878279E-01  2.19749172008E-01
  2.23443528070E-01  2.27199972702E-01  2.31019549383E-01  2.34903319132E-01
  2.38852360798E-01  2.42867771363E-01  2.46950666245E-01  2.51102179607E-01
  2.55323464675E-01  2.59615694054E-01  2.63980060057E-01  2.68417775038E-01
  2.72930071723E-01  2.77518203557E-01  2.82183445050E-01  2.86927092133E-01
  2.91750462517E-01  2.96654896056E-01  3.01641755126E-01  3.06712424997E-01
  3.11868314221E-01  3.17110855023E-01  3.22441503698E-01  3.27861741016E-01
  3.33373072632E-01  3.38977029509E-01  3.44675168336E-01  3.50469071967E-01
  3.56360349857E-01  3.62350638510E-01  3.68441601932E-01  3.74634932098E-01
  3.80932349418E-01  3.87335603213E-01  3.93846472207E-01  4.00466765016E-01
  4.07198320654E-01  4.14043009040E-01  4.21002731520E-01  4.28079421396E-01
  4.35275044459E-01  4.42591599542E-01  4.50031119066E-01  4.57595669613E-01
  4.65287352496E-01  4.73108304343E-01  4.81060697690E-01  4.89146741587E-01
  4.97368682210E-01  5.05728803483E-01  5.14229427716E-01  5.22872916249E-01
  5.31661670106E-01  5.40598130663E-01  5.49684780330E-01  5.58924143232E-01
  5.68318785920E-01  5.77871318077E-01  5.87584393246E-01  5.97460709565E-01
  6.07503010519E-01  6.17714085700E-01  6.28096771585E-01  6.38653952319E-01
  6.49388560520E-01  6.60303578093E-01  6.71402037058E-01  6.82687020391E-01
  6.94161662882E-01  7.05829152006E-01  7.17692728807E-01  7.29755688799E-01
  7.42021382883E-01  7.54493218273E-01  7.67174659450E-01  7.80069229117E-01
  7.93180509182E-01  8.06512141751E-01  8.20067830142E-01  8.33851339910E-01
  8.47866499898E-01  8.62117203295E-01  8.76607408721E-01  8.91341141328E-01
  9.06322493912E-01  9.21555628057E-01  9.37044775288E-01  9.52794238244E-01
  9.68808391878E-01  9.85091684669E-01  1.00164863986E+00  1.01848385671E+00
  1.03560201177E+00  1.05300786021E+00  1.07070623708E+00  1.08870205872E+00
  1.10700032409E+00  1.12560611615E+00  1.14452460330E+00  1.16376104079E+00
  1.18332077221E+00  1.20320923094E+00  1.22343194168E+00  1.24399452197E+00
  1.26490268378E+00  1.28616223507E+00  1.30777908139E+00  1.32975922758E+00
  1.35210877937E+00  1.37483394511E+00  1.39794103750E+00  1.42143647531E+00
  1.44532678521E+00  1.46961860356E+00  1.49431867823E+00  1.51943387051E+00
  1.54497115702E+00  1.57093763160E+00  1.59734050732E+00  1.62418711851E+00
  1.65148492270E+00  1.67924150282E+00  1.70746456919E+00  1.73616196174E+00
  1.76534165215E+00  1.79501174608E+00  1.82518048540E+00  1.85585625053E+00
  1.88704756270E+00  1.91876308637E+00  1.95101163161E+00  1.98380215656E+00
  2.01714376990E+00  2.05104573341E+00  2.08551746451E+00  2.12056853893E+00
  2.15620869327E+00  2.19244782783E+00  2.22929600926E+00  2.26676347339E+00
  2.30486062811E+00  2.34359805620E+00  2.38298651830E+00  2.42303695591E+00
  2.46376049440E+00  2.50516844614E+00  2.54727231359E+00  2.59008379256E+00
  2.63361477538E+00  2.67787735428E+00  2.72288382471E+00  2.76864668874E+00
  2.81517865859E+00  2.86249266010E+00  2.91060183635E+00  2.95951955131E+00
  3.00925939355E+00  3.05983518002E+00  3.11126095985E+00  3.16355101834E+00
  3.21671988082E+00  3.27078231678E+00  3.32575334389E+00  3.38164823225E+00
  3.43848250856E+00  3.49627196051E+00  3.55503264107E+00  3.61478087305E+00
  3.67553325355E+00  3.73730665863E+00  3.80011824797E+00  3.86398546962E+00
  3.92892606491E+00  3.99495807330E+00  4.06209983743E+00  4.13037000824E+00
  4.19978755009E+00  4.27037174609E+00  4.34214220340E+00  4.41511885873E+00
  4.48932198384E+00  4.56477219119E+00  4.64149043965E+00  4.71949804034E+00
  4.79881666253E+00  4.87946833970E+00  4.96147547561E+00  5.04486085053E+00
  5.12964762761E+00  5.21585935928E+00  5.30351999380E+00  5.39265388190E+00
  5.48328578358E+00  5.57544087493E+00  5.66914475520E+00  5.76442345384E+00
  5.86130343777E+00  5.95981161872E+00  6.05997536070E+00  6.16182248762E+00
  6.26538129100E+00  6.37068053785E+00  6.47774947863E+00  6.58661785540E+00
  6.69731591008E+00  6.80987439285E+00  6.92432457066E+00  7.04069823597E+00
  7.15902771555E+00  7.27934587946E+00  7.40168615018E+00  7.52608251191E+00
  7.65256952000E+00  7.78118231053E+00  7.91195661011E+00  8.04492874578E+00
  8.18013565509E+00  8.31761489639E+00  8.45740465924E+00  8.59954377503E+00
  8.74407172776E+00  8.89102866502E+00  9.04045540911E+00  9.19239346844E+00
  9.34688504898E+00  9.50397306607E+00  9.66370115628E+00  9.82611368954E+00
  9.99125578150E+00  1.01591733060E+01  1.03299129079E+01  1.05035220160E+01
  1.06800488561E+01  1.08595424646E+01  1.10420527020E+01  1.12276302667E+01
  1.14163267093E+01  1.16081944466E+01  1.18032867766E+01  1.20016578926E+01
  1.22033628993E+01  1.24084578268E+01  1.26169996475E+01  1.28290462910E+01
  1.30446566604E+01  1.32638906488E+01  1.34868091562E+01  1.37134741056E+01
  1.39439484610E+01  1.41782962446E+01  1.44165825545E+01  1.46588735828E+01
  1.49052366342E+01  1.51557401445E+01  1.54104536994E+01  1.56694480546E+01
  1.59327951545E+01  1.62005681527E+01  1.64728414324E+01  1.67496906268E+01
  1.70311926402E+01  1.73174256694E+01  1.76084692255E+01  1.79044041558E+01
  1.82053126663E+01  1.85112783446E+01  1.88223861833E+01  1.91387226030E+01
  1.94603754771E+01  1.97874341557E+01  2.01199894905E+01  2.04581338601E+01
  2.08019611957E+01  2.11515670071E+01  2.15070484093E+01  2.18685041494E+01
  2.22360346340E+01  2.26097419575E+01  2.29897299296E+01  2.33761041052E+01
  2.37689718128E+01  2.41684421849E+01  2.45746261881E+01  2.49876366538E+01
  2.54075883098E+01  2.58345978122E+01  2.62687837773E+01  2.67102668151E+01
  2.71591695628E+01  2.76156167184E+01  2.80797350756E+01  2.85516535594E+01
  2.90315032610E+01  2.95194174753E+01  3.00155317371E+01  3.05199838591E+01
  3.10329139701E+01  3.15544645540E+01  3.20847804893E+01  3.26240090894E+01
  3.31723001436E+01  3.37298059584E+01  3.42966814000E+01  3.48730839377E+01
  3.54591736868E+01  3.60551134539E+01  3.66610687816E+01  3.72772079947E+01
  3.79037022470E+01  3.85407255687E+01  3.91884549148E+01  3.98470702143E+01
  4.05167544202E+01  4.11976935600E+01  4.18900767880E+01  4.25940964373E+01
  4.33099480734E+01  4.40378305486E+01  4.47779460572E+01  4.55305001915E+01
  4.62957019992E+01  4.70737640414E+01  4.78649024513E+01  4.86693369946E+01
  4.94872911307E+01  5.03189920743E+01  5.11646708586E+01  5.20245624001E+01
  5.28989055628E+01  5.37879432257E+01  5.46919223492E+01  5.56110940445E+01
  5.65457136431E+01  5.74960407674E+01  5.84623394033E+01  5.94448779733E+01
  6.04439294112E+01  6.14597712376E+01  6.24926856374E+01  6.35429595378E+01
  6.46108846884E+01  6.56967577419E+01  6.68008803367E+01  6.79235591806E+01
  6.90651061360E+01  7.02258383068E+01  7.14060781259E+01  7.26061534454E+01
  7.38263976271E+01  7.50671496357E+01  7.63287541325E+01  7.76115615713E+01
  7.89159282958E+01  8.02422166383E+01  8.15907950210E+01  8.29620380574E+01
  8.43563266574E+01  8.57740481323E+01  8.72155963026E+01  8.86813716078E+01
  9.01717812170E+01  9.16872391426E+01  9.32281663547E+01  9.47949908986E+01
  9.63881480135E+01  9.80080802532E+01  9.96552376093E+01  1.01330077636E+02
  1.03033065578E+02  1.04764674498E+02  1.06525385409E+02  1.08315687409E+02
  1.10136077817E+02  1.11987062307E+02  1.13869155054E+02  1.15782878874E+02
  1.17728765368E+02  1.19707355073E+02  1.21719197611E+02  1.23764851840E+02
  1.25844886009E+02  1.27959877919E+02  1.30110415083E+02  1.32297094884E+02
  1.34520524749E+02  1.36781322310E+02  1.39080115583E+02  1.41417543134E+02
  1.43794254265E+02  1.46210909189E+02  1.48668179214E+02  1.51166746930E+02
  1.53707306402E+02  1.56290563355E+02  1.58917235378E+02  1.61588052118E+02
  1.64303755488E+02  1.67065099865E+02  1.69872852308E+02  1.72727792767E+02
  1.75630714298E+02  1.78582423287E+02  1.81583739673E+02  1.84635497173E+02
  1.87738543519E+02  1.90893740686E+02  1.94101965140E+02  1.97364108073E+02
  2.00681075659E+02
  </PP_R>
  <PP_RAB>
  1.16907944302E-06  1.18872737839E-06  1.20870552345E-06  1.22901942781E-06
  1.24967473437E-06  1.27067718083E-06  1.29203260134E-06  1.31374692811E-06
  1.33582619303E-06  1.35827652937E-06  1.38110417348E-06  1.40431546651E-06
  1.42791685621E-06  1.45191489866E-06  1.47631626014E-06  1.50112771896E-06
  1.52635616736E-06  1.55200861340E-06  1.57809218291E-06  1.60461412152E-06
  1.63158179659E-06  1.65900269932E-06  1.68688444679E-06  1.71523478413E-06
  1.74406158660E-06  1.77337286184E-06  1.80317675205E-06  1.83348153629E-06
  1.86429563275E-06  1.89562760109E-06  1.92748614484E-06  1.95988011381E-06
  1.99281850652E-06  2.02631047274E-06  2.06036531601E-06  2.09499249623E-06
  2.13020163227E-06  2.16600250470E-06  2.20240505841E-06  2.23941940546E-06
  2.27705582786E-06  2.31532478042E-06  2.35423689363E-06  2.39380297667E-06
  2.43403402037E-06  2.47494120029E-06  2.51653587979E-06  2.55882961322E-06
  2.60183414910E-06  2.64556143342E-06  2.69002361292E-06  2.73523303851E-06
  2.78120226864E-06  2.82794407284E-06  2.87547143524E-06  2.92379755820E-06
  2.97293586594E-06  3.02290000832E-06  3.07370386459E-06  3.12536154724E-06
  3.17788740598E-06  3.23129603166E-06  3.28560226034E-06  3.34082117745E-06
  3.39696812192E-06  3.45405869048E-06  3.51210874201E-06  3.57113440188E-06
  3.63115206649E-06  3.69217840781E-06  3.75423037797E-06  3.81732521405E-06
  3.88148044279E-06  3.94671388550E-06  4.01304366300E-06  4.08048820065E-06
  4.14906623349E-06  4.21879681141E-06  4.28969930445E-06  4.36179340822E-06
  4.43509914931E-06  4.50963689091E-06  4.58542733842E-06  4.66249154524E-06
  4.74085091857E-06  4.82052722542E-06  4.90154259860E-06  4.98391954292E-06
  5.06768094137E-06  5.15285006157E-06  5.23945056213E-06  5.32750649932E-06
  5.41704233369E-06  5.50808293686E-06  5.60065359849E-06  5.69478003325E-06
  5.79048838796E-06  5.88780524891E-06  5.98675764917E-06  6.08737307617E-06
  6.18967947927E-06  6.29370527758E-06  6.39947936783E-06  6.50703113239E-06
  6.61639044743E-06  6.72758769126E-06  6.84065375270E-06  6.95562003973E-06
  7.07251848815E-06  7.19138157053E-06  7.31224230514E-06  7.43513426518E-06
  7.56009158811E-06  7.68714898509E-06  7.81634175066E-06  7.94770577253E-06
  8.08127754156E-06  8.21709416187E-06  8.35519336117E-06  8.49561350124E-06
  8.63839358857E-06  8.78357328523E-06  8.93119291983E-06  9.08129349878E-06
  9.23391671766E-06  9.38910497278E-06  9.54690137298E-06  9.70734975162E-06
  9.87049467872E-06  1.00363814734E-05  1.02050562163E-05  1.03765657627E-05
  1.05509577552E-05  1.07282806371E-05  1.09085836659E-05  1.10919169271E-05
  1.12783313476E-05  1.14678787104E-05  1.16606116688E-05  1.18565837611E-05
  1.20558494250E-05  1.22584640135E-05  1.24644838098E-05  1.26739660428E-05
  1.28869689034E-05  1.31035515604E-05  1.33237741772E-05  1.35476979280E-05
  1.37753850154E-05  1.40068986871E-05  1.42423032542E-05  1.44816641081E-05
  1.47250477397E-05  1.49725217569E-05  1.52241549043E-05  1.54800170815E-05
  1.57401793629E-05  1.60047140176E-05  1.62736945291E-05  1.65471956160E-05
  1.68252932525E-05  1.71080646897E-05  1.73955884772E-05  1.76879444844E-05
  1.79852139233E-05  1.82874793705E-05  1.85948247907E-05  1.89073355597E-05
  1.92250984878E-05  1.95482018447E-05  1.98767353833E-05  2.02107903652E-05
  2.05504595854E-05  2.08958373988E-05  2.12470197458E-05  2.16041041794E-05
  2.19671898920E-05  2.23363777429E-05  2.27117702869E-05  2.30934718020E-05
  2.34815883189E-05  2.38762276502E-05  2.42774994204E-05  2.46855150966E-05
  2.51003880191E-05  2.55222334330E-05  2.59511685203E-05  2.63873124323E-05
  2.68307863231E-05  2.72817133825E-05  2.77402188711E-05  2.82064301545E-05
  2.86804767387E-05  2.91624903064E-05  2.96526047534E-05  3.01509562257E-05
  3.06576831574E-05  3.11729263095E-05  3.16968288081E-05  3.22295361853E-05
  3.27711964186E-05  3.33219599728E-05  3.38819798412E-05  3.44514115885E-05
  3.50304133940E-05  3.56191460950E-05  3.62177732324E-05  3.68264610952E-05
  3.74453787673E-05  3.80746981743E-05  3.87145941312E-05  3.93652443909E-05
  4.00268296939E-05  4.06995338180E-05  4.13835436299E-05  4.20790491367E-05
  4.27862435389E-05  4.35053232838E-05  4.42364881204E-05  4.49799411549E-05
  4.57358889067E-05  4.65045413662E-05  4.72861120529E-05  4.80808180747E-05
  4.88888801885E-05  4.97105228612E-05  5.05459743321E-05  5.13954666764E-05
  5.22592358697E-05  5.31375218535E-05  5.40305686016E-05  5.49386241885E-05
  5.58619408576E-05  5.68007750917E-05  5.77553876840E-05  5.87260438111E-05
  5.97130131056E-05  6.07165697322E-05  6.17369924631E-05  6.27745647555E-05
  6.38295748306E-05  6.49023157536E-05  6.59930855150E-05  6.71021871134E-05
  6.82299286396E-05  6.93766233626E-05  7.05425898159E-05  7.17281518867E-05
  7.29336389053E-05  7.41593857370E-05  7.54057328749E-05  7.66730265346E-05
  7.79616187503E-05  7.92718674724E-05  8.06041366675E-05  8.19587964189E-05
  8.33362230295E-05  8.47367991269E-05  8.61609137689E-05  8.76089625521E-05
  8.90813477215E-05  9.05784782826E-05  9.21007701145E-05  9.36486460859E-05
  9.52225361722E-05  9.68228775754E-05  9.84501148448E-05  1.00104700001E-04
  1.01787092663E-04  1.03497760171E-04  1.05237177723E-04  1.07005828501E-04
  1.08804203808E-04  1.10632803204E-04  1.12492134647E-04  1.14382714627E-04
  1.16305068320E-04  1.18259729724E-04  1.20247241813E-04  1.22268156687E-04
  1.24323035724E-04  1.26412449737E-04  1.28536979132E-04  1.30697214070E-04
  1.32893754630E-04  1.35127210977E-04  1.37398203529E-04  1.39707363132E-04
  1.42055331234E-04  1.44442760064E-04  1.46870312811E-04  1.49338663812E-04
  1.51848498736E-04  1.54400514774E-04  1.56995420837E-04  1.59633937749E-04
  1.62316798448E-04  1.65044748189E-04  1.67818544756E-04  1.70638958664E-04
  1.73506773380E-04  1.76422785538E-04  1.79387805159E-04  1.82402655880E-04
  1.85468175178E-04  1.88585214606E-04  1.91754640029E-04  1.94977331862E-04
  1.98254185320E-04  2.01586110658E-04  2.04974033436E-04  2.08418894762E-04
  2.11921651566E-04  2.15483276858E-04  2.19104760002E-04  2.22787106988E-04
  2.26531340714E-04  2.30338501268E-04  2.34209646221E-04  2.38145850916E-04
  2.42148208766E-04  2.46217831565E-04  2.50355849789E-04  2.54563412915E-04
  2.58841689737E-04  2.63191868692E-04  2.67615158192E-04  2.72112786957E-04
  2.76686004357E-04  2.81336080760E-04  2.86064307883E-04  2.90871999153E-04
  2.95760490070E-04  3.00731138582E-04  3.05785325454E-04  3.10924454661E-04
  3.16149953771E-04  3.21463274346E-04  3.26865892342E-04  3.32359308520E-04
  3.37945048866E-04  3.43624665010E-04  3.49399734659E-04  3.55271862037E-04
  3.61242678327E-04  3.67313842128E-04  3.73487039915E-04  3.79763986502E-04
  3.86146425528E-04  3.92636129933E-04  3.99234902455E-04  4.05944576127E-04
  4.12767014792E-04  4.19704113615E-04  4.26757799613E-04  4.33930032188E-04
  4.41222803674E-04  4.48638139886E-04  4.56178100689E-04  4.63844780564E-04
  4.71640309194E-04  4.79566852054E-04  4.87626611012E-04  4.95821824942E-04
  5.04154770344E-04  5.12627761981E-04  5.21243153514E-04  5.30003338163E-04
  5.38910749370E-04  5.47967861473E-04  5.57177190394E-04  5.66541294339E-04
  5.76062774509E-04  5.85744275821E-04  5.95588487642E-04  6.05598144540E-04
  6.15776027038E-04  6.26124962393E-04  6.36647825374E-04  6.47347539067E-04
  6.58227075683E-04  6.69289457386E-04  6.80537757131E-04  6.91975099517E-04
  7.03604661659E-04  7.15429674064E-04  7.27453421535E-04  7.39679244078E-04
  7.52110537833E-04  7.64750756019E-04  7.77603409888E-04  7.90672069704E-04
  8.03960365735E-04  8.17471989259E-04  8.31210693592E-04  8.45180295129E-04
  8.59384674405E-04  8.73827777172E-04  8.88513615495E-04  9.03446268870E-04
  9.18629885351E-04  9.34068682707E-04  9.49766949592E-04  9.65729046737E-04
  9.81959408160E-04  9.98462542399E-04  1.01524303377E-03  1.03230554361E-03
  1.04965481164E-03  1.06729565719E-03  1.08523298063E-03  1.10347176465E-03
  1.12201707570E-03  1.14087406537E-03  1.16004797184E-03  1.17954412132E-03
  1.19936792953E-03  1.21952490321E-03  1.24002064164E-03  1.26086083823E-03
  1.28205128205E-03  1.30359785947E-03  1.32550655579E-03  1.34778345689E-03
  1.37043475096E-03  1.39346673016E-03  1.41688579240E-03  1.44069844315E-03
  1.46491129717E-03  1.48953108042E-03  1.51456463188E-03  1.54001890547E-03
  1.56590097200E-03  1.59221802109E-03  1.61897736320E-03  1.64618643165E-03
  1.67385278470E-03  1.70198410762E-03  1.73058821484E-03  1.75967305214E-03
  1.78924669883E-03  1.81931736999E-03  1.84989341879E-03  1.88098333876E-03
  1.91259576621E-03  1.94473948255E-03  1.97742341681E-03  2.01065664806E-03
  2.04444840799E-03  2.07880808339E-03  2.11374521885E-03  2.14926951935E-03
  2.18539085298E-03  2.22211925368E-03  2.25946492401E-03  2.29743823802E-03
  2.33604974409E-03  2.37531016789E-03  2.41523041534E-03  2.45582157566E-03
  2.49709492443E-03  2.53906192673E-03  2.58173424035E-03  2.62512371896E-03
  2.66924241549E-03  2.71410258540E-03  2.75971669015E-03  2.80609740062E-03
  2.85325760063E-03  2.90121039054E-03  2.94996909089E-03  2.99954724606E-03
  3.04995862809E-03  3.10121724045E-03  3.15333732200E-03  3.20633335085E-03
  3.26022004847E-03  3.31501238374E-03  3.37072557709E-03  3.42737510478E-03
  3.48497670315E-03  3.54354637301E-03  3.60310038410E-03  3.66365527957E-03
  3.72522788062E-03  3.78783529114E-03  3.85149490250E-03  3.91622439831E-03
  3.98204175941E-03  4.04896526883E-03  4.11701351686E-03  4.18620540623E-03
  4.25656015735E-03  4.32809731367E-03  4.40083674707E-03  4.47479866341E-03
  4.55000360816E-03  4.62647247206E-03  4.70422649695E-03  4.78328728167E-03
  4.86367678806E-03  4.94541734705E-03  5.02853166488E-03  5.11304282940E-03
  5.19897431647E-03  5.28634999650E-03  5.37519414108E-03  5.46553142970E-03
  5.55738695665E-03  5.65078623793E-03  5.74575521838E-03  5.84232027890E-03
  5.94050824373E-03  6.04034638794E-03  6.14186244498E-03  6.24508461442E-03
  6.35004156974E-03  6.45676246632E-03  6.56527694956E-03  6.67561516305E-03
  6.78780775701E-03  6.90188589678E-03  7.01788127145E-03  7.13582610270E-03
  7.25575315377E-03  7.37769573847E-03  7.50168773054E-03  7.62776357299E-03
  7.75595828771E-03  7.88630748515E-03  8.01884737428E-03  8.15361477257E-03
  8.29064711628E-03  8.42998247083E-03  8.57165954138E-03  8.71571768359E-03
  8.86219691454E-03  9.01113792383E-03  9.16258208494E-03  9.31657146665E-03
  9.47314884478E-03  9.63235771407E-03  9.79424230021E-03  9.95884757219E-03
  1.01262192548E-02  1.02964038411E-02  1.04694486059E-02  1.06454016181E-02
  1.08243117548E-02  1.10062287143E-02  1.11912030304E-02  1.13792860860E-02
  1.15705301275E-02  1.17649882795E-02  1.19627145596E-02  1.21637638928E-02
  1.23681921275E-02  1.25760560507E-02  1.27874134036E-02  1.30023228981E-02
  1.32208442325E-02  1.34430381086E-02  1.36689662485E-02  1.38986914113E-02
  1.41322774111E-02  1.43697891344E-02  1.46112925581E-02  1.48568547682E-02
  1.51065439780E-02  1.53604295471E-02  1.56185820009E-02  1.58810730502E-02
  1.61479756107E-02  1.64193638239E-02  1.66953130771E-02  1.69759000246E-02
  1.72612026090E-02  1.75513000829E-02  1.78462730308E-02  1.81462033915E-02
  1.84511744810E-02  1.87612710153E-02  1.90765791345E-02  1.93971864260E-02
  1.97231819497E-02  2.00546562618E-02  2.03917014407E-02  2.07344111122E-02
  2.10828804758E-02  2.14372063305E-02  2.17974871027E-02  2.21638228725E-02
  2.25363154023E-02  2.29150681647E-02  2.33001863711E-02  2.36917770013E-02