<PP_INFO>
Generated using Vanderbilt code, version   7  3  5                              
Author: unknown    Generation date:   20    6 2004                              
Automatically converted from original format                                    
    1        The Pseudo was generated with a Scalar-Relativistic Calculation
  2.00000000000E+00    Local Potential cutoff radius
nl pn  l   occ               Rcut            Rcut US             E pseu
4S  4  0  2.00     10.00000000000      2.20000000000     -1.07065129002
4P  4  1  3.00     10.00000000000      1.80000000000     -0.38533359164
</PP_INFO>


<PP_HEADER>
   0                   Version Number
  As                   Element
   US                  Ultrasoft pseudopotential
    T                  Nonlinear Core Correction
 SLA  PW   GGX  GGC    PW91 Exchange-Correlation functional
    5.00000000000      Z valence
  -35.75553888374      Total energy
  0.0000000  0.0000000 Suggested cutoff for wfc and rho
    1                  Max angular momentum component
  875                  Number of points in mesh
    2    4             Number of Wavefunctions, Number of Projectors
 Wavefunctions         nl  l   occ
                       4S  0  2.00
                       4P  1  3.00
</PP_HEADER>


<PP_MESH>
  <PP_R>
  0.00000000000E+00  1.28396391151E-06  2.58987539418E-06  3.91810961109E-06
  5.26904813824E-06  6.64307907412E-06  8.04059715123E-06  9.46200384948E-06
  1.09077075115E-05  1.23781234600E-05  1.38736741170E-05  1.53947891252E-05
  1.69419054717E-05  1.85154676129E-05  2.01159276028E-05  2.17437452226E-05
  2.33993881128E-05  2.50833319076E-05  2.67960603715E-05  2.85380655381E-05
  3.03098478519E-05  3.21119163116E-05  3.39447886166E-05  3.58089913157E-05
  3.77050599582E-05  3.96335392480E-05  4.15949831999E-05  4.35899552987E-05
  4.56190286613E-05  4.76827862012E-05  4.97818207961E-05  5.19167354580E-05
  5.40881435064E-05  5.62966687450E-05  5.85429456404E-05  6.08276195043E-05
  6.31513466794E-05  6.55147947275E-05  6.79186426215E-05  7.03635809405E-05
  7.28503120678E-05  7.53795503932E-05  7.79520225180E-05  8.05684674635E-05
  8.32296368839E-05  8.59362952815E-05  8.86892202270E-05  9.14892025824E-05
  9.43370467285E-05  9.72335707958E-05  1.00179606900E-04  1.03176001379E-04
  1.06223615040E-04  1.09323323404E-04  1.12476016956E-04  1.15682601404E-04
  1.18943997938E-04  1.22261143495E-04  1.25634991025E-04  1.29066509770E-04
  1.32556685539E-04  1.36106520992E-04  1.39717035928E-04  1.43389267578E-04
  1.47124270902E-04  1.50923118896E-04  1.54786902895E-04  1.58716732889E-04
  1.62713737842E-04  1.66779066016E-04  1.70913885302E-04  1.75119383553E-04
  1.79396768928E-04  1.83747270235E-04  1.88172137291E-04  1.92672641274E-04
  1.97250075092E-04  2.01905753752E-04  2.06641014742E-04  2.11457218409E-04
  2.16355748357E-04  2.21338011838E-04  2.26405440159E-04  2.31559489096E-04
  2.36801639306E-04  2.42133396758E-04  2.47556293162E-04  2.53071886412E-04
  2.58681761031E-04  2.64387528628E-04  2.70190828359E-04  2.76093327399E-04
  2.82096721423E-04  2.88202735089E-04  2.94413122537E-04  3.00729667891E-04
  3.07154185773E-04  3.13688521822E-04  3.20334553226E-04  3.27094189262E-04
  3.33969371842E-04  3.40962076073E-04  3.48074310823E-04  3.55308119301E-04
  3.62665579639E-04  3.70148805494E-04  3.77759946650E-04  3.85501189643E-04
  3.93374758381E-04  4.01382914788E-04  4.09527959452E-04  4.17812232288E-04
  4.26238113206E-04  4.34808022799E-04  4.43524423036E-04  4.52389817971E-04
  4.61406754459E-04  4.70577822892E-04  4.79905657941E-04  4.89392939313E-04
  4.99042392518E-04  5.08856789660E-04  5.18838950223E-04  5.28991741890E-04
  5.39318081361E-04  5.49820935194E-04  5.60503320655E-04  5.71368306587E-04
  5.82419014290E-04  5.93658618419E-04  6.05090347894E-04  6.16717486831E-04
  6.28543375480E-04  6.40571411192E-04  6.52805049388E-04  6.65247804555E-04
  6.77903251256E-04  6.90775025157E-04  7.03866824069E-04  7.17182409012E-04
  7.30725605296E-04  7.44500303619E-04  7.58510461186E-04  7.72760102844E-04
  7.87253322240E-04  8.01994282993E-04  8.16987219899E-04  8.32236440136E-04
  8.47746324511E-04  8.63521328714E-04  8.79565984598E-04  8.95884901482E-04
  9.12482767475E-04  9.29364350823E-04  9.46534501278E-04  9.63998151493E-04
  9.81760318435E-04  9.99826104832E-04  1.01820070064E-03  1.03688938451E-03
  1.05589752535E-03  1.07523058383E-03  1.09489411397E-03  1.11489376471E-03
  1.13523528157E-03  1.15592450827E-03  1.17696738843E-03  1.19836996725E-03
  1.22013839329E-03  1.24227892019E-03  1.26479790851E-03  1.28770182749E-03
  1.31099725701E-03  1.33469088939E-03  1.35878953134E-03  1.38330010594E-03
  1.40822965461E-03  1.43358533913E-03  1.45937444368E-03  1.48560437698E-03
  1.51228267439E-03  1.53941700006E-03  1.56701514915E-03  1.59508505009E-03
  1.62363476681E-03  1.65267250110E-03  1.68220659492E-03  1.71224553286E-03
  1.74279794453E-03  1.77387260703E-03  1.80547844752E-03  1.83762454574E-03
  1.87032013664E-03  1.90357461305E-03  1.93739752831E-03  1.97179859911E-03
  2.00678770821E-03  2.04237490729E-03  2.07857041988E-03  2.11538464424E-03
  2.15282815638E-03  2.19091171311E-03  2.22964625509E-03  2.26904291001E-03
  2.30911299576E-03  2.34986802370E-03  2.39131970197E-03  2.43347993883E-03
  2.47636084610E-03  2.51997474263E-03  2.56433415786E-03  2.60945183538E-03
  2.65534073663E-03  2.70201404460E-03  2.74948516764E-03  2.79776774327E-03
  2.84687564215E-03  2.89682297203E-03  2.94762408180E-03  2.99929356565E-03
  3.05184626721E-03  3.10529728386E-03  3.15966197105E-03  3.21495594669E-03
  3.27119509567E-03  3.32839557442E-03  3.38657381552E-03  3.44574653246E-03
  3.50593072441E-03  3.56714368113E-03  3.62940298792E-03  3.69272653067E-03
  3.75713250100E-03  3.82263940151E-03  3.88926605106E-03  3.95703159021E-03
  4.02595548667E-03  4.09605754094E-03  4.16735789200E-03  4.23987702306E-03
  4.31363576745E-03  4.38865531464E-03  4.46495721628E-03  4.54256339245E-03
  4.62149613790E-03  4.70177812846E-03  4.78343242761E-03  4.86648249305E-03
  4.95095218345E-03  5.03686576533E-03  5.12424791998E-03  5.21312375061E-03
  5.30351878953E-03  5.39545900549E-03  5.48897081112E-03  5.58408107057E-03
  5.68081710716E-03  5.77920671130E-03  5.87927814840E-03  5.98106016706E-03
  6.08458200727E-03  6.18987340887E-03  6.29696462004E-03  6.40588640600E-03
  6.51667005788E-03  6.62934740168E-03  6.74395080742E-03  6.86051319843E-03
  6.97906806084E-03  7.09964945317E-03  7.22229201612E-03  7.34703098252E-03
  7.47390218746E-03  7.60294207859E-03  7.73418772656E-03  7.86767683572E-03
  8.00344775490E-03  8.14153948847E-03  8.28199170749E-03  8.42484476118E-03
  8.57013968846E-03  8.71791822974E-03  8.86822283894E-03  9.02109669567E-03
  9.17658371763E-03  9.33472857323E-03  9.49557669443E-03  9.65917428978E-03
  9.82556835770E-03  9.99480669999E-03  1.01669379355E-02  1.03420115144E-02
  1.05200777316E-02  1.07011877424E-02  1.08853935761E-02  1.10727481514E-02
  1.12633052916E-02  1.14571197403E-02  1.16542471764E-02  1.18547442310E-02
  1.20586685029E-02  1.22660785756E-02  1.24770340341E-02  1.26915954817E-02
  1.29098245578E-02  1.31317839554E-02  1.33575374391E-02  1.35871498636E-02
  1.38206871920E-02  1.40582165152E-02  1.42998060706E-02  1.45455252622E-02
  1.47954446806E-02  1.50496361226E-02  1.53081726125E-02  1.55711284230E-02
  1.58385790960E-02  1.61106014650E-02  1.63872736768E-02  1.66686752139E-02
  1.69548869176E-02  1.72459910109E-02  1.75420711224E-02  1.78432123102E-02
  1.81495010863E-02  1.84610254416E-02  1.87778748710E-02  1.91001403991E-02
  1.94279146068E-02  1.97612916570E-02  2.01003673227E-02  2.04452390136E-02
  2.07960058048E-02  2.11527684648E-02  2.15156294845E-02  2.18846931069E-02
  2.22600653569E-02  2.26418540717E-02  2.30301689317E-02  2.34251214923E-02
  2.38268252157E-02  2.42353955036E-02  2.46509497304E-02  2.50736072767E-02
  2.55034895640E-02  2.59407200890E-02  2.63854244596E-02  2.68377304308E-02
  2.72977679413E-02  2.77656691510E-02  2.82415684789E-02  2.87256026417E-02
  2.92179106929E-02  2.97186340632E-02  3.02279166007E-02  3.07459046124E-02
  3.12727469063E-02  3.18085948339E-02  3.23536023340E-02  3.29079259767E-02
  3.34717250084E-02  3.40451613977E-02  3.46283998818E-02  3.52216080139E-02
  3.58249562110E-02  3.64386178036E-02  3.70627690846E-02  3.76975893607E-02
  3.83432610035E-02  3.89999695019E-02  3.96679035155E-02  4.03472549290E-02
  4.10382189067E-02  4.17409939493E-02  4.24557819505E-02  4.31827882550E-02
  4.39222217177E-02  4.46742947634E-02  4.54392234482E-02  4.62172275214E-02
  4.70085304884E-02  4.78133596753E-02  4.86319462938E-02  4.94645255082E-02
  5.03113365024E-02  5.11726225486E-02  5.20486310778E-02  5.29396137502E-02
  5.38458265279E-02  5.47675297483E-02  5.57049881990E-02  5.66584711935E-02
  5.76282526492E-02  5.86146111654E-02  5.96178301038E-02  6.06381976699E-02
  6.16760069955E-02  6.27315562231E-02  6.38051485916E-02  6.48970925234E-02
  6.60077017127E-02  6.71372952162E-02  6.82861975441E-02  6.94547387539E-02
  7.06432545448E-02  7.18520863545E-02  7.30815814569E-02  7.43320930621E-02
  7.56039804181E-02  7.68976089133E-02  7.82133501822E-02  7.95515822119E-02
  8.09126894504E-02  8.22970629176E-02  8.37051003172E-02  8.51372061511E-02
  8.65937918355E-02  8.80752758194E-02  8.95820837044E-02  9.11146483673E-02
  9.26734100842E-02  9.42588166572E-02  9.58713235430E-02  9.75113939835E-02
  9.91794991394E-02  1.00876118225E-01  1.02601738646E-01  1.04356856139E-01
  1.06141974917E-01  1.07957607809E-01  1.09804276411E-01  1.11682511236E-01
  1.13592851864E-01  1.15535847099E-01  1.17512055126E-01  1.19522043670E-01
  1.21566390164E-01  1.23645681908E-01  1.25760516243E-01  1.27911500719E-01
  1.30099253273E-01  1.32324402403E-01  1.34587587352E-01  1.36889458290E-01
  1.39230676498E-01  1.41611914565E-01  1.44033856573E-01  1.46497198299E-01
  1.49002647414E-01  1.51550923686E-01  1.54142759183E-01  1.56778898492E-01
  1.59460098923E-01  1.62187130733E-01  1.64960777346E-01  1.67781835577E-01
  1.70651115862E-01  1.73569442488E-01  1.76537653836E-01  1.79556602614E-01
  1.82627156108E-01  1.85750196428E-01  1.88926620765E-01  1.92157341642E-01
  1.95443287184E-01  1.98785401379E-01  2.02184644352E-01  2.05641992639E-01
  2.09158439471E-01  2.12734995053E-01  2.16372686861E-01  2.20072559935E-01
  2.23835677174E-01  2.27663119651E-01  2.31555986916E-01  2.35515397314E-01
  2.39542488306E-01  2.43638416799E-01  2.47804359473E-01  2.52041513123E-01
  2.56351095001E-01  2.60734343167E-01  2.65192516843E-01  2.69726896776E-01
  2.74338785606E-01  2.79029508239E-01  2.83800412229E-01  2.88652868164E-01
  2.93588270061E-01  2.98608035766E-01  3.03713607360E-01  3.08906451575E-01
  3.14188060214E-01  3.19559950583E-01  3.25023665919E-01  3.30580775845E-01
  3.36232876809E-01  3.41981592551E-01  3.47828574565E-01  3.53775502577E-01
  3.59824085023E-01  3.65976059545E-01  3.72233193486E-01  3.78597284399E-01
  3.85070160564E-01  3.91653681514E-01  3.98349738566E-01  4.05160255368E-01
  4.12087188451E-01  4.19132527787E-01  4.26298297366E-01  4.33586555776E-01
  4.40999396791E-01  4.48538949979E-01  4.56207381305E-01  4.64006893764E-01
  4.71939728002E-01  4.80008162971E-01  4.88214516575E-01  4.96561146341E-01
  5.05050450094E-01  5.13684866647E-01  5.22466876500E-01  5.31399002556E-01
  5.40483810841E-01  5.49723911245E-01  5.59121958269E-01  5.68680651792E-01
  5.78402737840E-01  5.88291009380E-01  5.98348307123E-01  6.08577520334E-01
  6.18981587669E-01  6.29563498015E-01  6.40326291350E-01  6.51273059616E-01
  6.62406947609E-01  6.73731153878E-01  6.85248931649E-01  6.96963589757E-01
  7.08878493596E-01  7.20997066087E-01  7.33322788663E-01  7.45859202264E-01
  7.58609908359E-01  7.71578569980E-01  7.84768912772E-01  7.98184726066E-01
  8.11829863964E-01  8.25708246452E-01  8.39823860519E-01  8.54180761309E-01
  8.68783073281E-01  8.83634991398E-01  8.98740782327E-01  9.14104785670E-01
  9.29731415207E-01  9.45625160169E-01  9.61790586518E-01  9.78232338271E-01
  9.94955138823E-01  1.01196379231E+00  1.02926318500E+00  1.04685828665E+00
  1.06475415202E+00  1.08295592223E+00  1.10146882629E+00  1.12029818262E+00
  1.13944940051E+00  1.15892798174E+00  1.17873952214E+00  1.19888971317E+00
  1.21938434359E+00  1.24022930112E+00  1.26143057411E+00  1.28299425327E+00
  1.30492653342E+00  1.32723371530E+00  1.34992220733E+00  1.37299852745E+00
  1.39646930507E+00  1.42034128287E+00  1.44462131882E+00  1.46931638810E+00
  1.49443358512E+00  1.51998012557E+00  1.54596334847E+00  1.57239071831E+00
  1.59926982715E+00  1.62660839685E+00  1.65441428124E+00  1.68269546842E+00
  1.71146008302E+00  1.74071638857E+00  1.77047278983E+00  1.80073783524E+00
  1.83152021936E+00  1.86282878538E+00  1.89467252764E+00  1.92706059424E+00
  1.96000228963E+00  1.99350707733E+00  2.02758458261E+00  2.06224459529E+00
  2.09749707251E+00  2.13335214164E+00  2.16982010313E+00  2.20691143352E+00
  2.24463678845E+00  2.28300700567E+00  2.32203310820E+00  2.36172630748E+00
  2.40209800662E+00  2.44315980360E+00  2.48492349470E+00  2.52740107782E+00
  2.57060475593E+00  2.61454694063E+00  2.65924025564E+00  2.70469754050E+00
  2.75093185421E+00  2.79795647898E+00  2.84578492409E+00  2.89443092972E+00
  2.94390847092E+00  2.99423176163E+00  3.04541525877E+00  3.09747366636E+00
  3.15042193977E+00  3.20427529003E+00  3.25904918814E+00  3.31475936961E+00
  3.37142183887E+00  3.42905287397E+00  3.48766903118E+00  3.54728714979E+00
  3.60792435694E+00  3.66959807252E+00  3.73232601419E+00  3.79612620248E+00
  3.86101696595E+00  3.92701694646E+00  3.99414510453E+00  4.06242072477E+00
  4.13186342145E+00  4.20249314412E+00  4.27433018333E+00  4.34739517646E+00
  4.42170911369E+00  4.49729334395E+00  4.57416958115E+00  4.65235991033E+00
  4.73188679406E+00  4.81277307888E+00  4.89504200186E+00  4.97871719726E+00
  5.06382270335E+00  5.15038296928E+00  5.23842286216E+00  5.32796767414E+00
  5.41904312971E+00  5.51167539309E+00  5.60589107573E+00  5.70171724397E+00
  5.79918142683E+00  5.89831162387E+00  5.99913631328E+00  6.10168446004E+00
  6.20598552426E+00  6.31206946960E+00  6.41996677194E+00  6.52970842807E+00
  6.64132596467E+00  6.75485144727E+00  6.87031748956E+00  6.98775726270E+00
  7.10720450486E+00  7.22869353093E+00  7.35225924234E+00  7.47793713714E+00
  7.60576332015E+00  7.73577451337E+00  7.86800806649E+00  8.00250196765E+00
  8.13929485435E+00  8.27842602454E+00  8.41993544791E+00  8.56386377738E+00
  8.71025236077E+00  8.85914325270E+00  9.01057922662E+00  9.16460378718E+00
  9.32126118264E+00  9.48059641764E+00  9.64265526612E+00  9.80748428444E+00
  9.97513082478E+00  1.01456430488E+01  1.03190699413E+01  1.04954613244E+01
  1.06748678721E+01  1.08573411244E+01  1.10429335022E+01  1.12316983227E+01
  1.14236898144E+01  1.16189631327E+01  1.18175743758E+01  1.20195806010E+01
  1.22250398406E+01  1.24340111192E+01  1.26465544702E+01  1.28627309531E+01
  1.30826026713E+01  1.33062327897E+01  1.35336855529E+01  1.37650263036E+01
  1.40003215015E+01  1.42396387425E+01  1.44830467777E+01  1.47306155336E+01
  1.49824161319E+01  1.52385209100E+01  1.54990034418E+01  1.57639385590E+01
  1.60334023723E+01  1.63074722933E+01  1.65862270572E+01  1.68697467448E+01
  1.71581128057E+01  1.74514080820E+01  1.77497168317E+01  1.80531247531E+01
  1.83617190096E+01  1.86755882541E+01  1.89948226554E+01  1.93195139232E+01
  1.96497553351E+01  1.99856417631E+01  2.03272697008E+01  2.06747372912E+01
  2.10281443553E+01  2.13875924198E+01  2.17531847474E+01  2.21250263656E+01
  2.25032240973E+01  2.28878865914E+01  2.32791243540E+01  2.36770497801E+01
  2.40817771860E+01  2.44934228421E+01  2.49121050062E+01  2.53379439576E+01
  2.57710620315E+01  2.62115836545E+01  2.66596353798E+01  2.71153459240E+01
  2.75788462040E+01  2.80502693744E+01  2.85297508660E+01  2.90174284245E+01
  2.95134421503E+01  3.00179345384E+01  3.05310505199E+01  3.10529375030E+01
  3.15837454156E+01  3.21236267488E+01  3.26727365998E+01  3.32312327175E+01
  3.37992755468E+01  3.43770282755E+01  3.49646568808E+01  3.55623301770E+01
  3.61702198640E+01  3.67885005769E+01  3.74173499357E+01  3.80569485967E+01
  3.87074803041E+01  3.93691319432E+01  4.00420935936E+01  4.07265585843E+01
  4.14227235487E+01  4.21307884816E+01  4.28509567964E+01  4.35834353834E+01
  4.43284346696E+01  4.50861686789E+01  4.58568550935E+01  4.66407153169E+01
  4.74379745368E+01  4.82488617904E+01  4.90736100299E+01  4.99124561895E+01
  5.07656412535E+01  5.16334103255E+01  5.25160126987E+01  5.34137019277E+01
  5.43267359012E+01  5.52553769163E+01  5.61998917535E+01  5.71605517536E+01
  5.81376328958E+01  5.91314158764E+01  6.01421861902E+01  6.11702342118E+01
  6.22158552796E+01  6.32793497803E+01  6.43610232352E+01  6.54611863883E+01
  6.65801552950E+01  6.77182514136E+01  6.88758016970E+01  7.00531386869E+01
  7.12506006096E+01  7.24685314727E+01  7.37072811642E+01  7.49672055527E+01
  7.62486665904E+01  7.75520324160E+01  7.88776774615E+01  8.02259825589E+01
  8.15973350502E+01  8.29921288985E+01  8.44107648011E+01  8.58536503045E+01
  8.73211999219E+01  8.88138352519E+01  9.03319850997E+01  9.18760856004E+01
  9.34465803442E+01  9.50439205038E+01  9.66685649642E+01  9.83209804543E+01
  1.00001641681E+02  1.01711031466E+02  1.03449640883E+02  1.05217969403E+02
  1.07016525030E+02  1.08845824455E+02  1.10706393202E+02  1.12598765774E+02
  1.14523485815E+02  1.16481106258E+02  1.18472189491E+02  1.20497307513E+02
  1.22557042101E+02  1.24651984978E+02  1.26782737979E+02  1.28949913229E+02
  1.31154133315E+02  1.33396031468E+02  1.35676251740E+02  1.37995449196E+02
  1.40354290096E+02  1.42753452088E+02  1.45193624407E+02  1.47675508066E+02
  1.50199816063E+02  1.52767273581E+02  1.55378618203E+02  1.58034600117E+02
  1.60735982334E+02  1.63483540911E+02  1.66278065167E+02  1.69120357915E+02
  1.72011235691E+02  1.74951528988E+02  1.77942082495E+02  1.80983755341E+02
  1.84077421339E+02  1.87223969240E+02  1.90424302986E+02  1.93679341971E+02
  1.96990021304E+02  2.00357292080E+02  2.03782121651E+02
  </PP_R>
  <PP_RAB>
  1.27311359870E-06  1.29487569889E-06  1.31700979182E-06  1.33952223617E-06
  1.36241949935E-06  1.38570815928E-06  1.40939490635E-06  1.43348654530E-06
  1.45798999720E-06  1.48291230141E-06  1.50826061763E-06  1.53404222794E-06
  1.56026453890E-06  1.58693508366E-06  1.61406152417E-06  1.64165165332E-06
  1.66971339722E-06  1.69825481747E-06  1.72728411347E-06  1.75680962477E-06
  1.78683983348E-06  1.81738336669E-06  1.84844899898E-06  1.88004565490E-06
  1.91218241155E-06  1.94486850121E-06  1.97811331395E-06  2.01192640037E-06
  2.04631747431E-06  2.08129641567E-06  2.11687327321E-06  2.15305826748E-06
  2.18986179372E-06  2.22729442489E-06  2.26536691464E-06  2.30409020047E-06
  2.34347540682E-06  2.38353384832E-06  2.42427703296E-06  2.46571666549E-06
  2.50786465070E-06  2.55073309689E-06  2.59433431934E-06  2.63868084384E-06
  2.68378541029E-06  2.72966097635E-06  2.77632072119E-06  2.82377804925E-06
  2.87204659410E-06  2.92114022236E-06  2.97107303767E-06  3.02185938478E-06
  3.07351385362E-06  3.12605128351E-06  3.17948676744E-06  3.23383565640E-06
  3.28911356376E-06  3.34533636980E-06  3.40252022624E-06  3.46068156091E-06
  3.51983708242E-06  3.58000378501E-06  3.64119895341E-06  3.70344016781E-06
  3.76674530891E-06  3.83113256305E-06  3.89662042743E-06  3.96322771546E-06
  4.03097356212E-06  4.09987742948E-06  4.16995911230E-06  4.24123874367E-06
  4.31373680086E-06  4.38747411116E-06  4.46247185788E-06  4.53875158640E-06
  4.61633521043E-06  4.69524501823E-06  4.77550367907E-06  4.85713424970E-06
  4.94016018102E-06  5.02460532476E-06  5.11049394038E-06  5.19785070202E-06
  5.28670070558E-06  5.37706947595E-06  5.46898297433E-06  5.56246760569E-06
  5.65755022635E-06  5.75425815172E-06  5.85261916410E-06  5.95266152071E-06
  6.05441396180E-06  6.15790571885E-06  6.26316652306E-06  6.37022661381E-06
  6.47911674740E-06  6.58986820585E-06  6.70251280592E-06  6.81708290822E-06
  6.93361142652E-06  7.05213183722E-06  7.17267818892E-06  7.29528511228E-06
  7.41998782987E-06  7.54682216639E-06  7.67582455887E-06  7.80703206722E-06
  7.94048238481E-06  8.07621384934E-06  8.21426545382E-06  8.35467685781E-06
  8.49748839879E-06  8.64274110376E-06  8.79047670100E-06  8.94073763210E-06
  9.09356706410E-06  9.24900890196E-06  9.40710780110E-06  9.56790918027E-06
  9.73145923460E-06  9.89780494886E-06  1.00669941110E-05  1.02390753256E-05
  1.04140980285E-05  1.05921125003E-05  1.07731698810E-05  1.09573221849E-05
  1.11446223155E-05  1.13351240804E-05  1.15288822071E-05  1.17259523585E-05
  1.19263911492E-05  1.21302561613E-05  1.23376059612E-05  1.25485001166E-05
  1.27629992132E-05  1.29811648726E-05  1.32030597694E-05  1.34287476497E-05
  1.36582933495E-05  1.38917628126E-05  1.41292231103E-05  1.43707424605E-05
  1.46163902468E-05  1.48662370393E-05  1.51203546139E-05  1.53788159739E-05
  1.56416953701E-05  1.59090683227E-05  1.61810116427E-05  1.64576034543E-05
  1.67389232169E-05  1.70250517482E-05  1.73160712475E-05  1.76120653189E-05
  1.79131189959E-05  1.82193187653E-05  1.85307525925E-05  1.88475099463E-05
  1.91696818250E-05  1.94973607823E-05  1.98306409541E-05  2.01696180853E-05
  2.05143895575E-05  2.08650544168E-05  2.12217134025E-05  2.15844689758E-05
  2.19534253494E-05  2.23286885172E-05  2.27103662852E-05  2.30985683020E-05
  2.34934060904E-05  2.38949930798E-05  2.43034446384E-05  2.47188781062E-05
  2.51414128295E-05  2.55711701941E-05  2.60082736611E-05  2.64528488018E-05
  2.69050233341E-05  2.73649271590E-05  2.78326923979E-05  2.83084534308E-05
  2.87923469345E-05  2.92845119224E-05  2.97850897838E-05  3.02942243252E-05
  3.08120618110E-05  3.13387510059E-05  3.18744432176E-05  3.24192923400E-05
  3.29734548977E-05  3.35370900910E-05  3.41103598413E-05  3.46934288379E-05
  3.52864645853E-05  3.58896374511E-05  3.65031207153E-05  3.71270906196E-05
  3.77617264187E-05  3.84072104311E-05  3.90637280918E-05  3.97314680056E-05
  4.04106220014E-05  4.11013851869E-05  4.18039560050E-05  4.25185362908E-05
  4.32453313292E-05  4.39845499145E-05  4.47364044099E-05  4.55011108085E-05
  4.62788887958E-05  4.70699618123E-05  4.78745571180E-05  4.86929058576E-05
  4.95252431267E-05  5.03718080399E-05  5.12328437988E-05  5.21085977622E-05
  5.29993215175E-05  5.39052709523E-05  5.48267063283E-05  5.57638923561E-05
  5.67170982711E-05  5.76865979109E-05  5.86726697940E-05  5.96755971997E-05
  6.06956682498E-05  6.17331759908E-05  6.27884184787E-05  6.38616988642E-05
  6.49533254801E-05  6.60636119294E-05  6.71928771761E-05  6.83414456361E-05
  6.95096472710E-05  7.06978176825E-05  7.19062982089E-05  7.31354360234E-05
  7.43855842334E-05  7.56571019824E-05  7.69503545527E-05  7.82657134708E-05
  7.96035566139E-05  8.09642683184E-05  8.23482394905E-05  8.37558677182E-05
  8.51875573861E-05  8.66437197907E-05  8.81247732593E-05  8.96311432701E-05
  9.11632625738E-05  9.27215713188E-05  9.43065171771E-05  9.59185554727E-05
  9.75581493133E-05  9.92257697223E-05  1.00921895775E-04  1.02647014735E-04
  1.04401622197E-04  1.06186222224E-04  1.08001327498E-04  1.09847459463E-04
  1.11725148478E-04  1.13634933966E-04  1.15577364572E-04  1.17552998318E-04
  1.19562402766E-04  1.21606155178E-04  1.23684842685E-04  1.25799062455E-04
  1.27949421861E-04  1.30136538659E-04  1.32361041168E-04  1.34623568441E-04
  1.36924770461E-04  1.39265308318E-04  1.41645854404E-04  1.44067092602E-04
  1.46529718488E-04  1.49034439526E-04  1.51581975276E-04  1.54173057593E-04
  1.56808430847E-04  1.59488852128E-04  1.62215091470E-04  1.64987932070E-04
  1.67808170509E-04  1.70676616988E-04  1.73594095557E-04  1.76561444350E-04
  1.79579515830E-04  1.82649177030E-04  1.85771309803E-04  1.88946811079E-04
  1.92176593118E-04  1.95461583773E-04  1.98802726759E-04  2.02200981921E-04
  2.05657325513E-04  2.09172750474E-04  2.12748266719E-04  2.16384901424E-04
  2.20083699324E-04  2.23845723013E-04  2.27672053245E-04  2.31563789253E-04
  2.35522049057E-04  2.39547969788E-04  2.43642708015E-04  2.47807440077E-04
  2.52043362422E-04  2.56351691948E-04  2.60733666354E-04  2.65190544496E-04
  2.69723606751E-04  2.74334155379E-04  2.79023514900E-04  2.83793032479E-04
  2.88644078303E-04  2.93578045986E-04  2.98596352961E-04  3.03700440890E-04
  3.08891776078E-04  3.14171849897E-04  3.19542179208E-04  3.25004306804E-04
  3.30559801849E-04  3.36210260328E-04  3.41957305508E-04  3.47802588406E-04
  3.53747788257E-04  3.59794613002E-04  3.65944799777E-04  3.72200115411E-04
  3.78562356937E-04  3.85033352102E-04  3.91614959898E-04  3.98309071095E-04
  4.05117608779E-04  4.12042528914E-04  4.19085820894E-04  4.26249508120E-04
  4.33535648582E-04  4.40946335446E-04  4.48483697660E-04  4.56149900561E-04
  4.63947146502E-04  4.71877675481E-04  4.79943765784E-04  4.88147734644E-04
  4.96491938902E-04  5.04978775687E-04  5.13610683102E-04  5.22390140928E-04
  5.31319671332E-04  5.40401839597E-04  5.49639254852E-04  5.59034570830E-04
  5.68590486622E-04  5.78309747458E-04  5.88195145494E-04  5.98249520613E-04
  6.08475761243E-04  6.18876805185E-04  6.29455640456E-04  6.40215306153E-04
  6.51158893319E-04  6.62289545834E-04  6.73610461320E-04  6.85124892056E-04
  6.96836145916E-04  7.08747587316E-04  7.20862638184E-04  7.33184778938E-04
  7.45717549491E-04  7.58464550266E-04  7.71429443230E-04  7.84615952944E-04
  7.98027867639E-04  8.11669040298E-04  8.25543389766E-04  8.39654901874E-04
  8.54007630588E-04  8.68605699168E-04  8.83453301358E-04  8.98554702585E-04
  9.13914241190E-04  9.29536329672E-04  9.45425455955E-04  9.61586184676E-04
  9.78023158500E-04  9.94741099452E-04  1.01174481027E-03  1.02903917580E-03
  1.04662916437E-03  1.06451982924E-03  1.08271631007E-03  1.10122383433E-03
  1.12004771890E-03  1.13919337150E-03  1.15866629231E-03  1.17847207553E-03
  1.19861641097E-03  1.21910508571E-03  1.23994398575E-03  1.26113909770E-03
  1.28269651051E-03  1.30462241721E-03  1.32692311669E-03  1.34960501549E-03
  1.37267462971E-03  1.39613858678E-03  1.42000362745E-03  1.44427660769E-03
  1.46896450064E-03  1.49407439867E-03  1.51961351537E-03  1.54558918762E-03
  1.57200887774E-03  1.59888017559E-03  1.62621080077E-03  1.65400860485E-03
  1.68228157359E-03  1.71103782927E-03  1.74028563302E-03  1.77003338715E-03
  1.80028963762E-03  1.83106307646E-03  1.86236254430E-03  1.89419703286E-03
  1.92657568757E-03  1.95950781019E-03  1.99300286149E-03  2.02707046395E-03
  2.06172040452E-03  2.09696263747E-03  2.13280728721E-03  2.16926465121E-03
  2.20634520296E-03  2.24405959500E-03  2.28241866194E-03  2.32143342359E-03
  2.36111508814E-03  2.40147505537E-03  2.44252491991E-03  2.48427647460E-03
  2.52674171384E-03  2.56993283708E-03  2.61386225230E-03  2.65854257956E-03
  2.70398665466E-03  2.75020753280E-03  2.79721849235E-03  2.84503303864E-03
  2.89366490787E-03  2.94312807103E-03  2.99343673794E-03  3.04460536129E-03
  3.09664864085E-03  3.14958152764E-03  3.20341922826E-03  3.25817720923E-03
  3.31387120146E-03  3.37051720477E-03  3.42813149244E-03  3.48673061596E-03
  3.54633140971E-03  3.60695099585E-03  3.66860678922E-03  3.73131650232E-03
  3.79509815045E-03  3.85997005684E-03  3.92595085794E-03  3.99305950875E-03
  4.06131528828E-03  4.13073780511E-03  4.20134700297E-03  4.27316316653E-03
  4.34620692718E-03  4.42049926897E-03  4.49606153467E-03  4.57291543184E-03
  4.65108303912E-03  4.73058681256E-03  4.81144959205E-03  4.89369460790E-03
  4.97734548752E-03  5.06242626217E-03  5.14896137394E-03  5.23697568266E-03
  5.32649447316E-03  5.41754346245E-03  5.51014880715E-03  5.60433711097E-03
  5.70013543239E-03  5.79757129242E-03  5.89667268250E-03  5.99746807253E-03
  6.09998641908E-03  6.20425717369E-03  6.31031029133E-03  6.41817623900E-03
  6.52788600452E-03  6.63947110536E-03  6.75296359777E-03  6.86839608594E-03
  6.98580173141E-03  7.10521426252E-03  7.22666798421E-03  7.35019778776E-03
  7.47583916091E-03  7.60362819798E-03  7.73360161030E-03  7.86579673671E-03
  8.00025155431E-03  8.13700468937E-03  8.27609542842E-03  8.41756372954E-03
  8.56145023383E-03  8.70779627710E-03  8.85664390174E-03  9.00803586879E-03
  9.16201567023E-03  9.31862754148E-03  9.47791647410E-03  9.63992822871E-03
  9.80470934817E-03  9.97230717089E-03  1.01427698445E-02  1.03161463396E-02
  1.04924864639E-02  1.06718408766E-02  1.08542611026E-02  1.10397995478E-02
  1.12285095137E-02  1.14204452132E-02  1.16156617856E-02  1.18142153129E-02
  1.20161628356E-02  1.22215623693E-02  1.24304729214E-02  1.26429545079E-02
  1.28590681705E-02  1.30788759946E-02  1.33024411267E-02  1.35298277927E-02
  1.37611013164E-02  1.39963281382E-02  1.42355758343E-02  1.44789131358E-02
  1.47264099489E-02  1.49781373746E-02  1.52341677293E-02  1.54945745656E-02
  1.57594326934E-02  1.60288182012E-02  1.63028084783E-02  1.65814822368E-02
  1.68649195343E-02  1.71532017969E-02  1.74464118423E-02  1.77446339043E-02
  1.80479536563E-02  1.83564582361E-02  1.86702362711E-02  1.89893779037E-02
  1.93139748171E-02  1.96441202618E-02  1.99799090821E-02  2.03214377436E-02
  2.06688043609E-02  2.10221087258E-02  2.13814523357E-02  2.17469384232E-02
  2.21186719852E-02  2.24967598137E-02  2.28813105259E-02  2.32724345959E-02
  2.36702443860E-02  2.40748541792E-02  2.44863802122E-02  2.49049407084E-02
  2.53306559122E-02  2.57636481232E-02  2.62040417318E-02  2.66519632544E-02
  2.71075413704E-02  2.75709069585E-02  2.80421931346E-02  2.85215352902E-02
  2.90090711310E-02  2.95049407165E-02  3.00092865005E-02  3.05222533719E-02
  3.10439886960E-02  3.15746423574E-02  3.21143668025E-02  3.26633170837E-02
  3.32216509039E-02  3.37895286615E-02  3.43671134968E-02  3.49545713389E-02
  3.55520709528E-02  3.61597839888E-02  3.67778850310E-02  3.74065516479E-02
  3.80459644432E-02  3.86963071079E-02  3.93577664729E-02  4.00305325625E-02