<PP_INFO>
Generated using Vanderbilt code, version   6  0  0
Author: unknown    Generation date:    26 March 96
Gold LDA 6s1 6p0.s0 5d 9.50 Ultrasoft
    1        The Pseudo was generated with a Scalar-Relativistic Calculation
  2.00000000000E+00    Local Potential cutoff radius
nl pn  l   occ               Rcut            Rcut US             E pseu
6S  6  0  1.00     10.00000000000      2.40000000000     -0.53922468800
6P  6  1  0.50     10.00000000000      2.70000000000     -0.12374285000
5D  5  2  9.50     10.00000000000      2.00000000000     -0.67553484800
</PP_INFO>


<PP_HEADER>
   0                   Version Number
  Au                   Element
   US                  Ultrasoft pseudopotential
    F                  Nonlinear Core Correction
 SLA  PZ   NOGX NOGC   PZ   Exchange-Correlation functional
   11.00000000000      Z valence
  -67.03931972900      Total energy
  0.0000000  0.0000000 Suggested cutoff for wfc and rho
    2                  Max angular momentum component
  939                  Number of points in mesh
    3    6             Number of Wavefunctions, Number of Projectors
 Wavefunctions         nl  l   occ
                       6S  0  1.00
                       6P  1  0.50
                       5D  2  9.50
</PP_HEADER>


<PP_MESH>
  <PP_R>
  0.00000000000E+00  1.16093597256E-08  2.34532440745E-08  3.55363907584E-08
  4.78636331970E-08  6.04399024518E-08  7.32702291980E-08  8.63597457375E-08
  9.97136880513E-08  1.13337397895E-07  1.27236324933E-07  1.41416028922E-07
  1.55882181933E-07  1.70640570620E-07  1.85697098535E-07  2.01057788490E-07
  2.16728784966E-07  2.32716356571E-07  2.49026898545E-07  2.65666935324E-07
  2.82643123144E-07  2.99962252706E-07  3.17631251894E-07  3.35657188542E-07
  3.54047273266E-07  3.72808862345E-07  3.91949460663E-07  4.11476724717E-07
  4.31398465672E-07  4.51722652489E-07  4.72457415116E-07  4.93611047732E-07
  5.15192012074E-07  5.37208940815E-07  5.59670641019E-07  5.82586097667E-07
  6.05964477246E-07  6.29815131421E-07  6.54147600770E-07  6.78971618607E-07
  7.04297114868E-07  7.30134220091E-07  7.56493269462E-07  7.83384806952E-07
  8.10819589535E-07  8.38808591489E-07  8.67363008789E-07  8.96494263581E-07
  9.26214008758E-07  9.56534132612E-07  9.87466763597E-07  1.01902427518E-06
  1.05121929078E-06  1.08406468884E-06  1.11757360796E-06  1.15175945215E-06
  1.18663589619E-06  1.22221689115E-06  1.25851666988E-06  1.29554975278E-06
  1.33333095358E-06  1.37187538527E-06  1.41119846613E-06  1.45131592591E-06
  1.49224381214E-06  1.53399849652E-06  1.57659668148E-06  1.62005540685E-06
  1.66439205671E-06  1.70962436631E-06  1.75577042918E-06  1.80284870435E-06
  1.85087802377E-06  1.89987759980E-06  1.94986703293E-06  2.00086631960E-06
  2.05289586019E-06  2.10597646723E-06  2.16012937366E-06  2.21537624136E-06
  2.27173916983E-06  2.32924070497E-06  2.38790384819E-06  2.44775206550E-06
  2.50880929700E-06  2.57109996640E-06  2.63464899079E-06  2.69948179063E-06
  2.76562429990E-06  2.83310297650E-06  2.90194481278E-06  2.97217734641E-06
  3.04382867133E-06  3.11692744903E-06  3.19150291999E-06  3.26758491540E-06
  3.34520386907E-06  3.42439082961E-06  3.50517747287E-06  3.58759611458E-06
  3.67167972329E-06  3.75746193358E-06  3.84497705946E-06  3.93426010816E-06
  4.02534679408E-06  4.11827355312E-06  4.21307755722E-06  4.30979672924E-06
  4.40846975813E-06  4.50913611444E-06  4.61183606604E-06  4.71661069429E-06
  4.82350191042E-06  4.93255247236E-06  5.04380600178E-06  5.15730700157E-06
  5.27310087366E-06  5.39123393713E-06  5.51175344678E-06  5.63470761203E-06
  5.76014561618E-06  5.88811763610E-06  6.01867486231E-06  6.15186951944E-06
  6.28775488713E-06  6.42638532133E-06  6.56781627608E-06  6.71210432563E-06
  6.85930718713E-06  7.00948374369E-06  7.16269406794E-06  7.31899944604E-06
  7.47846240223E-06  7.64114672382E-06  7.80711748671E-06  7.97644108141E-06
  8.14918523962E-06  8.32541906132E-06  8.50521304236E-06  8.68863910276E-06
  8.87577061537E-06  9.06668243530E-06  9.26145092981E-06  9.46015400891E-06
  9.66287115648E-06  9.86968346207E-06  1.00806736534E-05  1.02959261293E-05
  1.05155269936E-05  1.07395640897E-05  1.09681270353E-05  1.12013072588E-05
  1.14391980352E-05  1.16818945240E-05  1.19294938072E-05  1.21820949277E-05
  1.24397989293E-05  1.27027088970E-05  1.29709299984E-05  1.32445695255E-05
  1.35237369378E-05  1.38085439058E-05  1.40991043562E-05  1.43955345171E-05
  1.46979529645E-05  1.50064806698E-05  1.53212410481E-05  1.56423600079E-05
  1.59699660009E-05  1.63041900741E-05  1.66451659213E-05  1.69930299376E-05
  1.73479212732E-05  1.77099818893E-05  1.80793566151E-05  1.84561932053E-05
  1.88406423995E-05  1.92328579827E-05  1.96329968462E-05  2.00412190510E-05
  2.04576878913E-05  2.08825699603E-05  2.13160352164E-05  2.17582570515E-05
  2.22094123604E-05  2.26696816110E-05  2.31392489172E-05  2.36183021123E-05
  2.41070328238E-05  2.46056365507E-05  2.51143127409E-05  2.56332648719E-05
  2.61627005313E-05  2.67028315004E-05  2.72538738390E-05  2.78160479712E-05
  2.83895787742E-05  2.89746956679E-05  2.95716327070E-05  3.01806286742E-05
  3.08019271760E-05  3.14357767401E-05  3.20824309147E-05  3.27421483703E-05
  3.34151930024E-05  3.41018340380E-05  3.48023461427E-05  3.55170095306E-05
  3.62461100766E-05  3.69899394306E-05  3.77487951343E-05  3.85229807402E-05
  3.93128059327E-05  4.01185866525E-05  4.09406452225E-05  4.17793104773E-05
  4.26349178941E-05  4.35078097272E-05  4.43983351450E-05  4.53068503697E-05
  4.62337188192E-05  4.71793112535E-05  4.81440059221E-05  4.91281887157E-05
  5.01322533206E-05  5.11566013760E-05  5.22016426347E-05  5.32677951272E-05
  5.43554853288E-05  5.54651483300E-05  5.65972280108E-05  5.77521772181E-05
  5.89304579471E-05  6.01325415257E-05  6.13589088035E-05  6.26100503436E-05
  6.38864666195E-05  6.51886682145E-05  6.65171760267E-05  6.78725214769E-05
  6.92552467215E-05  7.06659048689E-05  7.21050602012E-05  7.35732883997E-05
  7.50711767752E-05  7.65993245032E-05  7.81583428630E-05  7.97488554829E-05
  8.13714985889E-05  8.30269212602E-05  8.47157856876E-05  8.64387674397E-05
  8.81965557319E-05  8.99898537032E-05  9.18193786965E-05  9.36858625464E-05
  9.55900518711E-05  9.75327083718E-05  9.95146091371E-05  1.01536546954E-04
  1.03599330624E-04  1.05703785288E-04  1.07850752756E-04  1.10041091844E-04
  1.12275678717E-04  1.14555407240E-04  1.16881189333E-04  1.19253955341E-04
  1.21674654402E-04  1.24144254828E-04  1.26663744492E-04  1.29234131223E-04
  1.31856443211E-04  1.34531729415E-04  1.37261059985E-04  1.40045526690E-04
  1.42886243353E-04  1.45784346300E-04  1.48740994810E-04  1.51757371582E-04
  1.54834683206E-04  1.57974160650E-04  1.61177059744E-04  1.64444661692E-04
  1.67778273578E-04  1.71179228892E-04  1.74648888060E-04  1.78188638992E-04
  1.81799897637E-04  1.85484108546E-04  1.89242745452E-04  1.93077311860E-04
  1.96989341648E-04  2.00980399680E-04  2.05052082433E-04  2.09206018633E-04
  2.13443869911E-04  2.17767331463E-04  2.22178132732E-04  2.26678038098E-04
  2.31268847582E-04  2.35952397569E-04  2.40730561542E-04  2.45605250831E-04
  2.50578415375E-04  2.55652044507E-04  2.60828167746E-04  2.66108855611E-04
  2.71496220447E-04  2.76992417272E-04  2.82599644638E-04  2.88320145511E-04
  2.94156208166E-04  3.00110167108E-04  3.06184403999E-04  3.12381348615E-04
  3.18703479816E-04  3.25153326539E-04  3.31733468809E-04  3.38446538771E-04
  3.45295221741E-04  3.52282257285E-04  3.59410440309E-04  3.66682622183E-04
  3.74101711875E-04  3.81670677121E-04  3.89392545607E-04  3.97270406185E-04
  4.05307410103E-04  4.13506772269E-04  4.21871772539E-04  4.30405757023E-04
  4.39112139430E-04  4.47994402428E-04  4.57056099042E-04  4.66300854069E-04
  4.75732365537E-04  4.85354406175E-04  4.95170824927E-04  5.05185548492E-04
  5.15402582894E-04  5.25826015081E-04  5.36460014566E-04  5.47308835091E-04
  5.58376816328E-04  5.69668385618E-04  5.81188059738E-04  5.92940446712E-04
  6.04930247651E-04  6.17162258636E-04  6.29641372634E-04  6.42372581457E-04
  6.55360977759E-04  6.68611757071E-04  6.82130219881E-04  6.95921773755E-04
  7.09991935498E-04  7.24346333363E-04  7.38990709300E-04  7.53930921255E-04
  7.69172945512E-04  7.84722879083E-04  8.00586942150E-04  8.16771480549E-04
  8.33282968312E-04  8.50128010253E-04  8.67313344614E-04  8.84845845758E-04
  9.02732526919E-04  9.20980543009E-04  9.39597193476E-04  9.58589925229E-04
  9.77966335614E-04  9.97734175455E-04  1.01790135215E-03  1.03847593284E-03
  1.05946614763E-03  1.08088039288E-03  1.10272723459E-03  1.12501541177E-03
  1.14775384000E-03  1.17095161494E-03  1.19461801603E-03  1.21876251014E-03
  1.24339475537E-03  1.26852460498E-03  1.29416211121E-03  1.32031752943E-03
  1.34700132215E-03  1.37422416323E-03  1.40199694218E-03  1.43033076849E-03
  1.45923697605E-03  1.48872712775E-03  1.51881302002E-03  1.54950668764E-03
  1.58082040847E-03  1.61276670842E-03  1.64535836644E-03  1.67860841962E-03
  1.71253016844E-03  1.74713718204E-03  1.78244330369E-03  1.81846265630E-03
  1.85520964811E-03  1.89269897839E-03  1.93094564338E-03  1.96996494226E-03
  2.00977248326E-03  2.05038418993E-03  2.09181630749E-03  2.13408540935E-03
  2.17720840371E-03  2.22120254034E-03  2.26608541749E-03  2.31187498890E-03
  2.35858957101E-03  2.40624785028E-03  2.45486889065E-03  2.50447214119E-03
  2.55507744386E-03  2.60670504146E-03  2.65937558571E-03  2.71311014553E-03
  2.76793021547E-03  2.82385772429E-03  2.88091504372E-03  2.93912499747E-03
  2.99851087028E-03  3.05909641731E-03  3.12090587357E-03  3.18396396367E-03
  3.24829591169E-03  3.31392745127E-03  3.38088483590E-03  3.44919484942E-03
  3.51888481675E-03  3.58998261481E-03  3.66251668366E-03  3.73651603790E-03
  3.81201027826E-03  3.88902960344E-03  3.96760482219E-03  4.04776736565E-03
  4.12954929991E-03  4.21298333884E-03  4.29810285715E-03  4.38494190380E-03
  4.47353521556E-03  4.56391823093E-03  4.65612710433E-03  4.75019872053E-03
  4.84617070943E-03  4.94408146112E-03  5.04397014120E-03  5.14587670647E-03
  5.24984192091E-03  5.35590737200E-03  5.46411548733E-03  5.57450955160E-03
  5.68713372389E-03  5.80203305539E-03  5.91925350734E-03  6.03884196951E-03
  6.16084627886E-03  6.28531523876E-03  6.41229863843E-03  6.54184727294E-03
  6.67401296346E-03  6.80884857804E-03  6.94640805271E-03  7.08674641311E-03
  7.22991979644E-03  7.37598547398E-03  7.52500187393E-03  7.67702860485E-03
  7.83212647945E-03  7.99035753895E-03  8.15178507789E-03  8.31647366943E-03
  8.48448919121E-03  8.65589885168E-03  8.83077121698E-03  9.00917623839E-03
  9.19118528030E-03  9.37687114876E-03  9.56630812058E-03  9.75957197309E-03
  9.95674001439E-03  1.01578911143E-02  1.03631057361E-02  1.05724659681E-02
  1.07860555574E-02  1.10039599426E-02  1.12262662884E-02  1.14530635203E-02
  1.16844423602E-02  1.19204953627E-02  1.21613169522E-02  1.24070034605E-02
  1.26576531654E-02  1.29133663303E-02  1.31742452438E-02  1.34403942610E-02
  1.37119198449E-02  1.39889306094E-02  1.42715373627E-02  1.45598531510E-02
  1.48539933046E-02  1.51540754834E-02  1.54602197244E-02  1.57725484893E-02
  1.60911867138E-02  1.64162618574E-02  1.67479039545E-02  1.70862456664E-02
  1.74314223343E-02  1.77835720333E-02  1.81428356282E-02  1.85093568292E-02
  1.88832822495E-02  1.92647614644E-02  1.96539470707E-02  2.00509947477E-02
  2.04560633198E-02  2.08693148199E-02  2.12909145540E-02  2.17210311678E-02
  2.21598367135E-02  2.26075067192E-02  2.30642202590E-02  2.35301600243E-02
  2.40055123972E-02  2.44904675250E-02  2.49852193962E-02  2.54899659182E-02
  2.60049089964E-02  2.65302546147E-02  2.70662129186E-02  2.76129982983E-02
  2.81708294755E-02  2.87399295899E-02  2.93205262893E-02  2.99128518199E-02
  3.05171431201E-02  3.11336419143E-02  3.17625948102E-02  3.24042533975E-02
  3.30588743480E-02  3.37267195190E-02  3.44080560573E-02  3.51031565068E-02
  3.58122989167E-02  3.65357669536E-02  3.72738500144E-02  3.80268433420E-02
  3.87950481438E-02  3.95787717121E-02  4.03783275467E-02  4.11940354805E-02
  4.20262218077E-02  4.28752194138E-02  4.37413679093E-02  4.46250137650E-02
  4.55265104511E-02  4.64462185783E-02  4.73845060422E-02  4.83417481701E-02
  4.93183278717E-02  5.03146357920E-02  5.13310704673E-02  5.23680384851E-02
  5.34259546464E-02  5.45052421318E-02  5.56063326707E-02  5.67296667140E-02
  5.78756936103E-02  5.90448717855E-02  6.02376689267E-02  6.14545621685E-02
  6.26960382844E-02  6.39625938814E-02  6.52547355988E-02  6.65729803103E-02
  6.79178553315E-02  6.92898986303E-02  7.06896590424E-02  7.21176964904E-02
  7.35745822085E-02  7.50608989704E-02  7.65772413226E-02  7.81242158222E-02
  7.97024412797E-02  8.13125490063E-02  8.29551830666E-02  8.46310005361E-02
  8.63406717641E-02  8.80848806419E-02  8.98643248763E-02  9.16797162688E-02
  9.35317810000E-02  9.54212599207E-02  9.73489088475E-02  9.93154988657E-02
  1.01321816638E-01  1.03368664717E-01  1.05456861870E-01  1.07587243405E-01
  1.09760661500E-01  1.11977985554E-01  1.14240102525E-01  1.16547917291E-01
  1.18902353006E-01  1.21304351479E-01  1.23754873539E-01  1.26254899429E-01
  1.28805429192E-01  1.31407483073E-01  1.34062101930E-01  1.36770347646E-01
  1.39533303553E-01  1.42352074873E-01  1.45227789150E-01  1.48161596710E-01
  1.51154671113E-01  1.54208209630E-01  1.57323433717E-01  1.60501589505E-01
  1.63743948299E-01  1.67051807085E-01  1.70426489052E-01  1.73869344116E-01
  1.77381749466E-01  1.80965110111E-01  1.84620859442E-01  1.88350459809E-01
  1.92155403102E-01  1.96037211347E-01  1.99997437321E-01  2.04037665166E-01
  2.08159511027E-01  2.12364623699E-01  2.16654685281E-01  2.21031411856E-01
  2.25496554173E-01  2.30051898348E-01  2.34699266580E-01  2.39440517878E-01
  2.44277548805E-01  2.49212294238E-01  2.54246728143E-01  2.59382864358E-01
  2.64622757407E-01  2.69968503318E-01  2.75422240459E-01  2.80986150399E-01
  2.86662458775E-01  2.92453436187E-01  2.98361399103E-01  3.04388710787E-01
  3.10537782243E-01  3.16811073182E-01  3.23211093005E-01  3.29740401805E-01
  3.36401611392E-01  3.43197386338E-01  3.50130445045E-01  3.57203560829E-01
  3.64419563029E-01  3.71781338144E-01  3.79291830981E-01  3.86954045837E-01
  3.94771047701E-01  4.02745963478E-01  4.10881983240E-01  4.19182361503E-01
  4.27650418531E-01  4.36289541657E-01  4.45103186648E-01  4.54094879078E-01
  4.63268215744E-01  4.72626866103E-01  4.82174573740E-01  4.91915157866E-01
  5.01852514844E-01  5.11990619749E-01  5.22333527958E-01  5.32885376773E-01
  5.43650387074E-01  5.54632865008E-01  5.65837203714E-01  5.77267885075E-01
  5.88929481517E-01  6.00826657834E-01  6.12964173056E-01  6.25346882349E-01
  6.37979738964E-01  6.50867796210E-01  6.64016209483E-01  6.77430238324E-01
  6.91115248522E-01  7.05076714264E-01  7.19320220323E-01  7.33851464292E-01
  7.48676258860E-01  7.63800534145E-01  7.79230340057E-01  7.94971848725E-01
  8.11031356962E-01  8.27415288786E-01  8.44130197987E-01  8.61182770753E-01
  8.78579828340E-01  8.96328329802E-01  9.14435374777E-01  9.32908206325E-01
  9.51754213824E-01  9.70980935929E-01  9.90596063584E-01  1.01060744310E+00
  1.03102307930E+00  1.05185113871E+00  1.07309995283E+00  1.09477802147E+00
  1.11689401615E+00  1.13945678355E+00  1.16247534909E+00  1.18595892050E+00
  1.20991689152E+00  1.23435884566E+00  1.25929456003E+00  1.28473400924E+00
  1.31068736941E+00  1.33716502224E+00  1.36417755913E+00  1.39173578547E+00
  1.41985072491E+00  1.44853362380E+00  1.47779595568E+00  1.50764942588E+00
  1.53810597619E+00  1.56917778962E+00  1.60087729532E+00  1.63321717351E+00
  1.66621036058E+00  1.69987005424E+00  1.73420971882E+00  1.76924309063E+00
  1.80498418351E+00  1.84144729435E+00  1.87864700889E+00  1.91659820752E+00
  1.95531607121E+00  1.99481608764E+00  2.03511405733E+00  2.07622610000E+00
  2.11816866103E+00  2.16095851799E+00  2.20461278741E+00  2.24914893156E+00
  2.29458476551E+00  2.34093846419E+00  2.38822856969E+00  2.43647399870E+00
  2.48569405002E+00  2.53590841234E+00  2.58713717206E+00  2.63940082138E+00
  2.69272026645E+00  2.74711683576E+00  2.80261228866E+00  2.85922882408E+00
  2.91698908938E+00  2.97591618943E+00  3.03603369588E+00  3.09736565651E+00
  3.15993660493E+00  3.22377157036E+00  3.28889608763E+00  3.35533620742E+00
  3.42311850666E+00  3.49227009918E+00  3.56281864652E+00  3.63479236906E+00
  3.70822005725E+00  3.78313108313E+00  3.85955541211E+00  3.93752361496E+00
  4.01706687997E+00  4.09821702554E+00  4.18100651278E+00  4.26546845861E+00
  4.35163664892E+00  4.43954555215E+00  4.52923033302E+00  4.62072686665E+00
  4.71407175286E+00  4.80930233086E+00  4.90645669415E+00  5.00557370576E+00
  5.10669301383E+00  5.20985506743E+00  5.31510113274E+00  5.42247330961E+00
  5.53201454833E+00  5.64376866687E+00  5.75778036835E+00  5.87409525898E+00
  5.99275986626E+00  6.11382165763E+00  6.23732905941E+00  6.36333147621E+00
  6.49187931067E+00  6.62302398365E+00  6.75681795475E+00  6.89331474337E+00
  7.03256895002E+00  7.17463627825E+00  7.31957355688E+00  7.46743876277E+00
  7.61829104395E+00  7.77219074336E+00  7.92919942293E+00  8.08937988822E+00
  8.25279621356E+00  8.41951376765E+00  8.58959923974E+00  8.76312066629E+00
  8.94014745817E+00  9.12075042847E+00  9.30500182079E+00  9.49297533813E+00
  9.68474617241E+00  9.88039103452E+00  1.00799881850E+01  1.02836174654E+01
  1.04913603301E+01  1.07032998791E+01  1.09195208910E+01  1.11401098571E+01
  1.13651550158E+01  1.15947463884E+01  1.18289758143E+01  1.20679369885E+01
  1.23117254986E+01  1.25604388634E+01  1.28141765713E+01  1.30730401210E+01
  1.33371330613E+01  1.36065610329E+01  1.38814318105E+01  1.41618553462E+01
  1.44479438130E+01  1.47398116503E+01  1.50375756090E+01  1.53413547986E+01
  1.56512707350E+01  1.59674473886E+01  1.62900112343E+01  1.66190913018E+01
  1.69548192278E+01  1.72973293077E+01  1.76467585502E+01  1.80032467317E+01
  1.83669364521E+01  1.87379731922E+01  1.91165053717E+01  1.95026844084E+01
  1.98966647792E+01  2.02986040814E+01  2.07086630962E+01  2.11270058525E+01
  2.15537996930E+01  2.19892153411E+01  2.24334269688E+01  2.28866122665E+01
  2.33489525146E+01  2.38206326552E+01  2.43018413668E+01  2.47927711391E+01
  2.52936183507E+01  2.58045833471E+01  2.63258705212E+01  2.68576883947E+01
  2.74002497019E+01  2.79537714745E+01  2.85184751287E+01  2.90945865534E+01
  2.96823362010E+01  3.02819591790E+01  3.08936953446E+01  3.15177894006E+01
  3.21544909927E+01  3.28040548103E+01  3.34667406874E+01  3.41428137072E+01
  3.48325443080E+01  3.55362083911E+01  3.62540874317E+01  3.69864685909E+01
  3.77336448309E+01  3.84959150322E+01  3.92735841130E+01  4.00669631514E+01
  4.08763695094E+01  4.17021269606E+01  4.25445658187E+01  4.34040230707E+01
  4.42808425109E+01  4.51753748788E+01  4.60879779991E+01  4.70190169255E+01
  4.79688640857E+01  4.89378994314E+01  4.99265105896E+01  5.09350930180E+01
  5.19640501630E+01  5.30137936211E+01  5.40847433037E+01  5.51773276051E+01
  5.62919835734E+01  5.74291570860E+01  5.85893030273E+01  5.97728854713E+01
  6.09803778667E+01  6.22122632266E+01  6.34690343215E+01  6.47511938766E+01
  6.60592547728E+01  6.73937402520E+01  6.87551841261E+01  7.01441309909E+01
  7.15611364435E+01  7.30067673051E+01  7.44816018473E+01  7.59862300236E+01
  7.75212537052E+01  7.90872869222E+01  8.06849561088E+01
  </PP_R>
  <PP_RAB>
  1.14936531044E-08  1.17258402989E-08  1.19627179859E-08  1.22043809196E-08
  1.24509257684E-08  1.27024511535E-08  1.29590576884E-08  1.32208480192E-08
  1.34879268655E-08  1.37604010623E-08  1.40383796031E-08  1.43219736829E-08
  1.46112967431E-08  1.49064645168E-08  1.52075950751E-08  1.55148088742E-08
  1.58282288038E-08  1.61479802358E-08  1.64741910753E-08  1.68069918109E-08
  1.71465155673E-08  1.74928981586E-08  1.78462781423E-08  1.82067968753E-08
  1.85745985697E-08  1.89498303513E-08  1.93326423177E-08  1.97231875988E-08
  2.01216224179E-08  2.05281061542E-08  2.09428014067E-08  2.13658740591E-08
  2.17974933459E-08  2.22378319207E-08  2.26870659248E-08  2.31453750578E-08
  2.36129426494E-08  2.40899557328E-08  2.45766051198E-08  2.50730854766E-08
  2.55795954018E-08  2.60963375063E-08  2.66235184937E-08  2.71613492435E-08
  2.77100448951E-08  2.82698249342E-08  2.88409132802E-08  2.94235383761E-08
  3.00179332796E-08  3.06243357567E-08  3.12429883764E-08  3.18741386080E-08
  3.25180389201E-08  3.31749468813E-08  3.38451252636E-08  3.45288421473E-08
  3.52263710283E-08  3.59379909273E-08  3.66639865019E-08  3.74046481600E-08
  3.81602721761E-08  3.89311608098E-08  3.97176224270E-08  4.05199716227E-08
  4.13385293473E-08  4.21736230348E-08  4.30255867339E-08  4.38947612414E-08
  4.47814942386E-08  4.56861404306E-08  4.66090616880E-08  4.75506271915E-08
  4.85112135799E-08  4.94912051005E-08  5.04909937631E-08  5.15109794964E-08
  5.25515703083E-08  5.36131824490E-08  5.46962405776E-08  5.58011779317E-08
  5.69284365010E-08  5.80784672039E-08  5.92517300681E-08  6.04486944144E-08
  6.16698390445E-08  6.29156524324E-08  6.41866329202E-08  6.54832889170E-08
  6.68061391025E-08  6.81557126343E-08  6.95325493600E-08  7.09372000326E-08
  7.23702265310E-08  7.38322020850E-08  7.53237115042E-08  7.68453514124E-08
  7.83977304857E-08  7.99814696966E-08  8.15972025618E-08  8.32455753960E-08
  8.49272475703E-08  8.66428917760E-08  8.83931942936E-08  9.01788552676E-08
  9.20005889861E-08  9.38591241669E-08  9.57552042488E-08  9.76895876891E-08
  9.96630482671E-08  1.01676375393E-07  1.03730374425E-07  1.05825866990E-07
  1.07963691313E-07  1.10144702552E-07  1.12369773140E-07  1.14639793136E-07
  1.16955670578E-07  1.19318331847E-07  1.21728722040E-07  1.24187805345E-07
  1.26696565428E-07  1.29256005826E-07  1.31867150351E-07  1.34531043493E-07
  1.37248750847E-07  1.40021359531E-07  1.42849978626E-07  1.45735739617E-07
  1.48679796847E-07  1.51683327978E-07  1.54747534463E-07  1.57873642025E-07
  1.61062901149E-07  1.64316587581E-07  1.67636002839E-07  1.71022474733E-07
  1.74477357897E-07  1.78002034331E-07  1.81597913952E-07  1.85266435160E-07
  1.89009065412E-07  1.92827301810E-07  1.96722671701E-07  2.00696733283E-07
  2.04751076234E-07  2.08887322346E-07  2.13107126172E-07  2.17412175690E-07
  2.21804192977E-07  2.26284934898E-07  2.30856193811E-07  2.35519798280E-07
  2.40277613808E-07  2.45131543585E-07  2.50083529248E-07  2.55135551658E-07
  2.60289631690E-07  2.65547831045E-07  2.70912253073E-07  2.76385043615E-07
  2.81968391859E-07  2.87664531220E-07  2.93475740229E-07  2.99404343447E-07
  3.05452712394E-07  3.11623266500E-07  3.17918474066E-07  3.24340853262E-07
  3.30892973123E-07  3.37577454586E-07  3.44396971531E-07  3.51354251857E-07
  3.58452078569E-07  3.65693290891E-07  3.73080785406E-07  3.80617517210E-07
  3.88306501095E-07  3.96150812758E-07  4.04153590028E-07  4.12318034124E-07
  4.20647410930E-07  4.29145052310E-07  4.37814357432E-07  4.46658794135E-07
  4.55681900312E-07  4.64887285324E-07  4.74278631449E-07  4.83859695350E-07
  4.93634309581E-07  5.03606384118E-07  5.13779907923E-07  5.24158950542E-07
  5.34747663730E-07  5.45550283113E-07  5.56571129884E-07  5.67814612528E-07
  5.79285228588E-07  5.90987566463E-07  6.02926307245E-07  6.15106226589E-07
  6.27532196624E-07  6.40209187906E-07  6.53142271399E-07  6.66336620510E-07
  6.79797513153E-07  6.93530333865E-07  7.07540575959E-07  7.21833843716E-07
  7.36415854636E-07  7.51292441717E-07  7.66469555791E-07  7.81953267908E-07
  7.97749771758E-07  8.13865386154E-07  8.30306557555E-07  8.47079862651E-07
  8.64192010986E-07  8.81649847649E-07  8.99460356005E-07  9.17630660498E-07
  9.36168029489E-07  9.55079878175E-07  9.74373771547E-07  9.94057427419E-07
  1.01413871952E-06  1.03462568062E-06  1.05552650580E-06  1.07684955565E-06
  1.09860335968E-06  1.12079661970E-06  1.14343821332E-06  1.16653719747E-06
  1.19010281205E-06  1.21414448362E-06  1.23867182917E-06  1.26369465998E-06
  1.28922298549E-06  1.31526701739E-06  1.34183717364E-06  1.36894408264E-06
  1.39659858753E-06  1.42481175048E-06  1.45359485713E-06  1.48295942110E-06
  1.51291718861E-06  1.54348014317E-06  1.57466051037E-06  1.60647076276E-06
  1.63892362488E-06  1.67203207831E-06  1.70580936686E-06  1.74026900190E-06
  1.77542476774E-06  1.81129072717E-06  1.84788122704E-06  1.88521090403E-06
  1.92329469053E-06  1.96214782054E-06  2.00178583585E-06  2.04222459218E-06
  2.08348026557E-06  2.12556935886E-06  2.16850870823E-06  2.21231548999E-06
  2.25700722745E-06  2.30260179790E-06  2.34911743976E-06  2.39657275993E-06
  2.44498674115E-06  2.49437874967E-06  2.54476854295E-06  2.59617627757E-06
  2.64862251732E-06  2.70212824140E-06  2.75671485280E-06  2.81240418690E-06
  2.86921852017E-06  2.92718057911E-06  2.98631354930E-06  3.04664108474E-06
  3.10818731723E-06  3.17097686609E-06  3.23503484798E-06  3.30038688695E-06
  3.36705912467E-06  3.43507823094E-06  3.50447141430E-06  3.57526643295E-06
  3.64749160585E-06  3.72117582403E-06  3.79634856215E-06  3.87303989031E-06
  3.95128048607E-06  4.03110164671E-06  4.11253530176E-06  4.19561402576E-06
  4.28037105132E-06  4.36684028237E-06  4.45505630775E-06  4.54505441506E-06
  4.63687060474E-06  4.73054160449E-06  4.82610488395E-06  4.92359866972E-06
  5.02306196060E-06  5.12453454324E-06  5.22805700803E-06  5.33367076533E-06
  5.44141806205E-06  5.55134199855E-06  5.66348654586E-06  5.77789656331E-06
  5.89461781643E-06  6.01369699527E-06  6.13518173309E-06  6.25912062540E-06
  6.38556324942E-06  6.51456018389E-06  6.64616302929E-06  6.78042442852E-06
  6.91739808792E-06  7.05713879880E-06  7.19970245929E-06  7.34514609676E-06
  7.49352789061E-06  7.64490719552E-06  7.79934456525E-06  7.95690177680E-06
  8.11764185515E-06  8.28162909849E-06  8.44892910388E-06  8.61960879357E-06
  8.79373644171E-06  8.97138170167E-06  9.15261563394E-06  9.33751073449E-06
  9.52614096384E-06  9.71858177660E-06  9.91491015164E-06  1.01152046230E-05
  1.03195453110E-05  1.05280139547E-05  1.07406939444E-05  1.09576703549E-05
  1.11790299797E-05  1.14048613655E-05  1.16352548479E-05  1.18703025873E-05
  1.21100986061E-05  1.23547388258E-05  1.26043211058E-05  1.28589452823E-05
  1.31187132083E-05  1.33837287945E-05  1.36540980507E-05  1.39299291282E-05
  1.42113323631E-05  1.44984203204E-05  1.47913078391E-05  1.50901120782E-05
  1.53949525633E-05  1.57059512348E-05  1.60232324961E-05  1.63469232641E-05
  1.66771530193E-05  1.70140538582E-05  1.73577605454E-05  1.77084105683E-05
  1.80661441915E-05  1.84311045133E-05  1.88034375226E-05  1.91832921577E-05
  1.95708203654E-05  1.99661771622E-05  2.03695206961E-05  2.07810123098E-05
  2.12008166056E-05  2.16291015107E-05  2.20660383448E-05  2.25118018885E-05
  2.29665704530E-05  2.34305259520E-05  2.39038539737E-05  2.43867438558E-05
  2.48793887606E-05  2.53819857526E-05  2.58947358774E-05  2.64178442417E-05
  2.69515200960E-05  2.74959769177E-05  2.80514324968E-05  2.86181090229E-05
  2.91962331742E-05  2.97860362080E-05  3.03877540535E-05  3.10016274058E-05
  3.16279018224E-05  3.22668278215E-05  3.29186609819E-05  3.35836620456E-05
  3.42620970219E-05  3.49542372939E-05  3.56603597268E-05  3.63807467792E-05
  3.71156866153E-05  3.78654732209E-05  3.86304065207E-05  3.94107924982E-05
  4.02069433182E-05  4.10191774516E-05  4.18478198029E-05  4.26932018402E-05
  4.35556617274E-05  4.44355444600E-05  4.53332020029E-05  4.62489934311E-05
  4.71832850733E-05  4.81364506586E-05  4.91088714660E-05  5.01009364769E-05
  5.11130425303E-05  5.21455944822E-05  5.31990053673E-05  5.42736965638E-05
  5.53700979626E-05  5.64886481388E-05  5.76297945275E-05  5.87939936025E-05
  5.99817110588E-05  6.11934219992E-05  6.24296111245E-05  6.36907729265E-05
  6.49774118870E-05  6.62900426786E-05  6.76291903711E-05  6.89953906415E-05
  7.03891899882E-05  7.18111459493E-05  7.32618273263E-05  7.47418144111E-05
  7.62516992183E-05  7.77920857218E-05  7.93635900969E-05  8.09668409662E-05
  8.26024796514E-05  8.42711604299E-05  8.59735507962E-05  8.77103317291E-05
  8.94821979642E-05  9.12898582717E-05  9.31340357396E-05  9.50154680636E-05
  9.69349078418E-05  9.88931228756E-05  1.00890896477E-04  1.02929027782E-04
  1.05008332071E-04  1.07129641093E-04  1.09293803400E-04  1.11501684685E-04
  1.13754168131E-04  1.16052154761E-04  1.18396563800E-04  1.20788333043E-04
  1.23228419230E-04  1.25717798428E-04  1.28257466422E-04  1.30848439112E-04
  1.33491752922E-04  1.36188465214E-04  1.38939654707E-04  1.41746421915E-04
  1.44609889582E-04  1.47531203133E-04  1.50511531132E-04  1.53552065750E-04
  1.56654023242E-04  1.59818644432E-04  1.63047195211E-04  1.66340967042E-04
  1.69701277477E-04  1.73129470687E-04  1.76626917993E-04  1.80195018421E-04
  1.83835199259E-04  1.87548916628E-04  1.91337656065E-04  1.95202933115E-04
  1.99146293941E-04  2.03169315940E-04  2.07273608374E-04  2.11460813016E-04
  2.15732604802E-04  2.20090692506E-04  2.24536819422E-04  2.29072764060E-04
  2.33700340857E-04  2.38421400907E-04  2.43237832697E-04  2.48151562862E-04
  2.53164556962E-04  2.58278820260E-04  2.63496398530E-04  2.68819378872E-04
  2.74249890551E-04  2.79790105842E-04  2.85442240906E-04  2.91208556673E-04
  2.97091359745E-04  3.03093003322E-04  3.09215888142E-04  3.15462463440E-04
  3.21835227929E-04  3.28336730801E-04  3.34969572744E-04  3.41736406981E-04
  3.48639940338E-04  3.55682934320E-04  3.62868206218E-04  3.70198630237E-04
  3.77677138643E-04  3.85306722941E-04  3.93090435066E-04  4.01031388606E-04
  4.09132760049E-04  4.17397790051E-04  4.25829784734E-04  4.34432117009E-04
  4.43208227923E-04  4.52161628038E-04  4.61295898833E-04  4.70614694138E-04
  4.80121741596E-04  4.89820844152E-04  4.99715881577E-04  5.09810812018E-04
  5.20109673581E-04  5.30616585948E-04  5.41335752025E-04  5.52271459620E-04
  5.63428083163E-04  5.74810085451E-04  5.86422019438E-04  5.98268530052E-04
  6.10354356055E-04  6.22684331938E-04  6.35263389857E-04  6.48096561602E-04