<PP_INFO>
Generated using "atomic" code by A. Dal Corso  (espresso distribution)     
Author: A.Allouche   Generation date:  6Sep2006                             
Be                                                                         
    0        The Pseudo was generated with a Non-Relativistic Calculation
    2 1.5000000E+00    L component and cutoff radius for Local Potential
nl pn  l   occ               Rcut            Rcut US             E pseu
2S  1  0  2.00      1.50000000000      3.00000000000     -0.41228828182
2S  1  0  0.00      1.50000000000      3.00000000000     -0.14841885940
2P  2  1  0.00      1.50000000000      3.00000000000     -0.14843503147
2P  2  1  0.00      1.50000000000      3.00000000000      0.10000000000
3D  3  2 -2.00      1.50000000000      1.50000000000      0.15000000000
</PP_INFO>


<PP_HEADER>
   0                   Version Number
  Be                   Element
   US                  Ultrasoft pseudopotential
    T                  Nonlinear Core Correction
 SLA  PW   PBX  PBC    PBE  Exchange-Correlation functional
    2.00000000000      Z valence
   -2.01582837076      Total energy
  0.0000000  0.0000000 Suggested cutoff for wfc and rho
    2                  Max angular momentum component
 1041                  Number of points in mesh
    2    4             Number of Wavefunctions, Number of Projectors
 Wavefunctions         nl  l   occ
                       2S  0  2.00
                       2P  1  0.00
</PP_HEADER>


<PP_MESH>
  <PP_R>
  2.27970491389E-04  2.30838007167E-04  2.33741591854E-04  2.36681699140E-04
  2.39658788424E-04  2.42673324880E-04  2.45725779537E-04  2.48816629347E-04
  2.51946357262E-04  2.55115452308E-04  2.58324409662E-04  2.61573730731E-04
  2.64863923227E-04  2.68195501250E-04  2.71568985366E-04  2.74984902688E-04
  2.78443786961E-04  2.81946178642E-04  2.85492624987E-04  2.89083680136E-04
  2.92719905198E-04  2.96401868340E-04  3.00130144878E-04  3.03905317361E-04
  3.07727975668E-04  3.11598717098E-04  3.15518146461E-04  3.19486876177E-04
  3.23505526366E-04  3.27574724953E-04  3.31695107757E-04  3.35867318596E-04
  3.40092009387E-04  3.44369840246E-04  3.48701479594E-04  3.53087604257E-04
  3.57528899577E-04  3.62026059515E-04  3.66579786761E-04  3.71190792844E-04
  3.75859798244E-04  3.80587532503E-04  3.85374734337E-04  3.90222151758E-04
  3.95130542184E-04  4.00100672561E-04  4.05133319482E-04  4.10229269309E-04
  4.15389318293E-04  4.20614272704E-04  4.25904948951E-04  4.31262173712E-04
  4.36686784065E-04  4.42179627617E-04  4.47741562635E-04  4.53373458184E-04
  4.59076194257E-04  4.64850661920E-04  4.70697763445E-04  4.76618412453E-04
  4.82613534057E-04  4.88684065008E-04  4.94830953838E-04  5.01055161012E-04
  5.07357659074E-04  5.13739432802E-04  5.20201479362E-04  5.26744808462E-04
  5.33370442509E-04  5.40079416774E-04  5.46872779546E-04  5.53751592302E-04
  5.60716929871E-04  5.67769880602E-04  5.74911546531E-04  5.82143043559E-04
  5.89465501623E-04  5.96880064870E-04  6.04387891841E-04  6.11990155650E-04
  6.19688044167E-04  6.27482760200E-04  6.35375521692E-04  6.43367561902E-04
  6.51460129602E-04  6.59654489273E-04  6.67951921300E-04  6.76353722173E-04
  6.84861204692E-04  6.93475698167E-04  7.02198548631E-04  7.11031119047E-04
  7.19974789522E-04  7.29030957523E-04  7.38201038093E-04  7.47486464078E-04
  7.56888686344E-04  7.66409174007E-04  7.76049414662E-04  7.85810914618E-04
  7.95695199127E-04  8.05703812631E-04  8.15838318994E-04  8.26100301754E-04
  8.36491364368E-04  8.47013130459E-04  8.57667244074E-04  8.68455369942E-04
  8.79379193728E-04  8.90440422302E-04  9.01640784004E-04  9.12982028913E-04
  9.24465929121E-04  9.36094279011E-04  9.47868895537E-04  9.59791618507E-04
  9.71864310869E-04  9.84088859007E-04  9.96467173032E-04  1.00900118708E-03
  1.02169285962E-03  1.03454417374E-03  1.04755713750E-03  1.06073378419E-03
  1.07407617269E-03  1.08758638778E-03  1.10126654045E-03  1.11511876826E-03
  1.12914523565E-03  1.14334813428E-03  1.15772968338E-03  1.17229213010E-03
  1.18703774985E-03  1.20196884667E-03  1.21708775356E-03  1.23239683289E-03
  1.24789847673E-03  1.26359510724E-03  1.27948917707E-03  1.29558316968E-03
  1.31187959980E-03  1.32838101377E-03  1.34508998998E-03  1.36200913923E-03
  1.37914110519E-03  1.39648856475E-03  1.41405422849E-03  1.43184084108E-03
  1.44985118171E-03  1.46808806454E-03  1.48655433912E-03  1.50525289084E-03
  1.52418664138E-03  1.54335854919E-03  1.56277160991E-03  1.58242885687E-03
  1.60233336156E-03  1.62248823410E-03  1.64289662373E-03  1.66356171930E-03
  1.68448674977E-03  1.70567498472E-03  1.72712973486E-03  1.74885435254E-03
  1.77085223226E-03  1.79312681125E-03  1.81568156995E-03  1.83852003259E-03
  1.86164576773E-03  1.88506238881E-03  1.90877355471E-03  1.93278297038E-03
  1.95709438731E-03  1.98171160422E-03  2.00663846760E-03  2.03187887232E-03
  2.05743676226E-03  2.08331613087E-03  2.10952102186E-03  2.13605552981E-03
  2.16292380078E-03  2.19013003299E-03  2.21767847748E-03  2.24557343874E-03
  2.27381927542E-03  2.30242040099E-03  2.33138128443E-03  2.36070645094E-03
  2.39040048264E-03  2.42046801927E-03  2.45091375896E-03  2.48174245890E-03
  2.51295893616E-03  2.54456806836E-03  2.57657479450E-03  2.60898411569E-03
  2.64180109596E-03  2.67503086303E-03  2.70867860911E-03  2.74274959173E-03
  2.77724913456E-03  2.81218262822E-03  2.84755553113E-03  2.88337337039E-03
  2.91964174260E-03  2.95636631477E-03  2.99355282520E-03  3.03120708435E-03
  3.06933497577E-03  3.10794245702E-03  3.14703556061E-03  3.18662039490E-03
  3.22670314512E-03  3.26729007427E-03  3.30838752414E-03  3.35000191629E-03
  3.39213975305E-03  3.43480761855E-03  3.47801217973E-03  3.52176018739E-03
  3.56605847725E-03  3.61091397100E-03  3.65633367740E-03  3.70232469338E-03
  3.74889420512E-03  3.79604948921E-03  3.84379791376E-03  3.89214693955E-03
  3.94110412121E-03  3.99067710842E-03  4.04087364704E-03  4.09170158039E-03
  4.14316885044E-03  4.19528349905E-03  4.24805366924E-03  4.30148760646E-03
  4.35559365987E-03  4.41038028365E-03  4.46585603833E-03  4.52202959209E-03
  4.57890972218E-03  4.63650531623E-03  4.69482537367E-03  4.75387900713E-03
  4.81367544385E-03  4.87422402715E-03  4.93553421787E-03  4.99761559586E-03
  5.06047786145E-03  5.12413083700E-03  5.18858446842E-03  5.25384882673E-03
  5.31993410959E-03  5.38685064299E-03  5.45460888276E-03  5.52321941627E-03
  5.59269296404E-03  5.66304038147E-03  5.73427266048E-03  5.80640093126E-03
  5.87943646400E-03  5.95339067065E-03  6.02827510670E-03  6.10410147301E-03
  6.18088161758E-03  6.25862753749E-03  6.33735138068E-03  6.41706544792E-03
  6.49778219469E-03  6.57951423315E-03  6.66227433409E-03  6.74607542895E-03
  6.83093061182E-03  6.91685314150E-03  7.00385644356E-03  7.09195411243E-03
  7.18115991356E-03  7.27148778554E-03  7.36295184228E-03  7.45556637522E-03
  7.54934585558E-03  7.64430493659E-03  7.74045845579E-03  7.83782143738E-03
  7.93640909452E-03  8.03623683172E-03  8.13732024728E-03  8.23967513568E-03
  8.34331749008E-03  8.44826350482E-03  8.55452957792E-03  8.66213231367E-03
  8.77108852521E-03  8.88141523718E-03  8.99312968836E-03  9.10624933434E-03
  9.22079185031E-03  9.33677513377E-03  9.45421730733E-03  9.57313672159E-03
  9.69355195793E-03  9.81548183149E-03  9.93894539406E-03  1.00639619371E-02
  1.01905509946E-02  1.03187323464E-02  1.04485260212E-02  1.05799522995E-02
  1.07130317168E-02  1.08477850671E-02  1.09842334059E-02  1.11223980535E-02
  1.12623005984E-02  1.14039629007E-02  1.15474070954E-02  1.16926555960E-02
  1.18397310978E-02  1.19886565817E-02  1.21394553175E-02  1.22921508679E-02
  1.24467670920E-02  1.26033281487E-02  1.27618585010E-02  1.29223829198E-02
  1.30849264871E-02  1.32495146008E-02  1.34161729782E-02  1.35849276598E-02
  1.37558050141E-02  1.39288317409E-02  1.41040348759E-02  1.42814417952E-02
  1.44610802187E-02  1.46429782155E-02  1.48271642074E-02  1.50136669738E-02
  1.52025156563E-02  1.53937397628E-02  1.55873691724E-02  1.57834341402E-02
  1.59819653017E-02  1.61829936777E-02  1.63865506795E-02  1.65926681131E-02
  1.68013781849E-02  1.70127135063E-02  1.72267070987E-02  1.74433923991E-02
  1.76628032651E-02  1.78849739800E-02  1.81099392586E-02  1.83377342519E-02
  1.85683945536E-02  1.88019562047E-02  1.90384556997E-02  1.92779299921E-02
  1.95204165003E-02  1.97659531133E-02  2.00145781967E-02  2.02663305986E-02
  2.05212496560E-02  2.07793752003E-02  2.10407475643E-02  2.13054075879E-02
  2.15733966248E-02  2.18447565489E-02  2.21195297605E-02  2.23977591937E-02
  2.26794883224E-02  2.29647611672E-02  2.32536223027E-02  2.35461168639E-02
  2.38422905539E-02  2.41421896502E-02  2.44458610128E-02  2.47533520910E-02
  2.50647109307E-02  2.53799861825E-02  2.56992271088E-02  2.60224835916E-02
  2.63498061405E-02  2.66812459001E-02  2.70168546587E-02  2.73566848558E-02
  2.77007895906E-02  2.80492226301E-02  2.84020384177E-02  2.87592920816E-02
  2.91210394434E-02  2.94873370268E-02  2.98582420667E-02  3.02338125176E-02
  3.06141070632E-02  3.09991851254E-02  3.13891068733E-02  3.17839332330E-02
  3.21837258970E-02  3.25885473335E-02  3.29984607970E-02  3.34135303370E-02
  3.38338208092E-02  3.42593978846E-02  3.46903280607E-02  3.51266786712E-02
  3.55685178966E-02  3.60159147754E-02  3.64689392141E-02  3.69276619987E-02
  3.73921548057E-02  3.78624902129E-02  3.83387417112E-02  3.88209837160E-02
  3.93092915784E-02  3.98037415976E-02  4.03044110324E-02  4.08113781135E-02
  4.13247220554E-02  4.18445230692E-02  4.23708623749E-02  4.29038222140E-02
  4.34434858626E-02  4.39899376443E-02  4.45432629432E-02  4.51035482176E-02
  4.56708810132E-02  4.62453499768E-02  4.68270448705E-02  4.74160565852E-02
  4.80124771552E-02  4.86163997724E-02  4.92279188010E-02  4.98471297921E-02
  5.04741294987E-02  5.11090158906E-02  5.17518881703E-02  5.24028467878E-02
  5.30619934567E-02  5.37294311700E-02  5.44052642163E-02  5.50895981958E-02
  5.57825400371E-02  5.64841980138E-02  5.71946817613E-02  5.79141022942E-02
  5.86425720234E-02  5.93802047739E-02  6.01271158021E-02  6.08834218145E-02
  6.16492409854E-02  6.24246929757E-02  6.32098989512E-02  6.40049816020E-02
  6.48100651615E-02  6.56252754255E-02  6.64507397722E-02  6.72865871823E-02
  6.81329482585E-02  6.89899552465E-02  6.98577420554E-02  7.07364442785E-02
  7.16261992150E-02  7.25271458909E-02  7.34394250809E-02  7.43631793304E-02
  7.52985529781E-02  7.62456921778E-02  7.72047449220E-02  7.81758610647E-02
  7.91591923448E-02  8.01548924097E-02  8.11631168396E-02  8.21840231716E-02
  8.32177709245E-02  8.42645216234E-02  8.53244388252E-02  8.63976881442E-02
  8.74844372778E-02  8.85848560326E-02  8.96991163515E-02  9.08273923398E-02
  9.19698602929E-02  9.31266987238E-02  9.42980883908E-02  9.54842123260E-02
  9.66852558636E-02  9.79014066692E-02  9.91328547687E-02  1.00379792579E-01
  1.01642414935E-01  1.02920919126E-01  1.04215504920E-01  1.05526374598E-01
  1.06853732987E-01  1.08197787489E-01  1.09558748116E-01  1.10936827520E-01
  1.12332241029E-01  1.13745206680E-01  1.15175945250E-01  1.16624680296E-01
  1.18091638185E-01  1.19577048134E-01  1.21081142239E-01  1.22604155519E-01
  1.24146325948E-01  1.25707894493E-01  1.27289105152E-01  1.28890204993E-01
  1.30511444190E-01  1.32153076066E-01  1.33815357130E-01  1.35498547115E-01
  1.37202909024E-01  1.38928709166E-01  1.40676217202E-01  1.42445706183E-01
  1.44237452595E-01  1.46051736403E-01  1.47888841092E-01  1.49749053713E-01
  1.51632664928E-01  1.53539969056E-01  1.55471264116E-01  1.57426851878E-01
  1.59407037905E-01  1.61412131607E-01  1.63442446282E-01  1.65498299173E-01
  1.67580011509E-01  1.69687908563E-01  1.71822319698E-01  1.73983578420E-01
  1.76172022430E-01  1.78387993677E-01  1.80631838411E-01  1.82903907237E-01
  1.85204555170E-01  1.87534141693E-01  1.89893030806E-01  1.92281591092E-01
  1.94700195768E-01  1.97149222745E-01  1.99629054690E-01  2.02140079080E-01
  2.04682688269E-01  2.07257279545E-01  2.09864255192E-01  2.12504022556E-01
  2.15176994106E-01  2.17883587499E-01  2.20624225646E-01  2.23399336777E-01
  2.26209354509E-01  2.29054717913E-01  2.31935871582E-01  2.34853265703E-01
  2.37807356125E-01  2.40798604430E-01  2.43827478007E-01  2.46894450123E-01
  2.50000000000E-01  2.53144612885E-01  2.56328780131E-01  2.59552999270E-01
  2.62817774094E-01  2.66123614729E-01  2.69471037721E-01  2.72860566111E-01
  2.76292729519E-01  2.79768064228E-01  2.83287113267E-01  2.86850426493E-01
  2.90458560682E-01  2.94112079612E-01  2.97811554153E-01  3.01557562355E-01
  3.05350689540E-01  3.09191528391E-01  3.13080679048E-01  3.17018749198E-01
  3.21006354172E-01  3.25044117042E-01  3.29132668717E-01  3.33272648041E-01
  3.37464701894E-01  3.41709485293E-01  3.46007661495E-01  3.50359902098E-01
  3.54766887148E-01  3.59229305247E-01  3.63747853655E-01  3.68323238405E-01
  3.72956174410E-01  3.77647385577E-01  3.82397604916E-01  3.87207574659E-01
  3.92078046373E-01  3.97009781079E-01  4.02003549371E-01  4.07060131536E-01
  4.12180317675E-01  4.17364907827E-01  4.22614712095E-01  4.27930550771E-01
  4.33313254467E-01  4.38763664240E-01  4.44282631729E-01  4.49871019282E-01
  4.55529700098E-01  4.61259558356E-01  4.67061489358E-01  4.72936399668E-01
  4.78885207253E-01  4.84908841626E-01  4.91008243992E-01  4.97184367396E-01
  5.03438176868E-01  5.09770649579E-01  5.16182774992E-01  5.22675555013E-01
  5.29250004153E-01  5.35907149683E-01  5.42648031796E-01  5.49473703767E-01
  5.56385232123E-01  5.63383696803E-01  5.70470191332E-01  5.77645822989E-01
  5.84911712981E-01  5.92268996619E-01  5.99718823492E-01  6.07262357651E-01
  6.14900777789E-01  6.22635277425E-01  6.30467065090E-01  6.38397364516E-01
  6.46427414829E-01  6.54558470741E-01  6.62791802746E-01  6.71128697318E-01
  6.79570457115E-01  6.88118401178E-01  6.96773865141E-01  7.05538201439E-01
  7.14412779516E-01  7.23398986043E-01  7.32498225133E-01  7.41711918562E-01
  7.51041505987E-01  7.60488445175E-01  7.70054212230E-01  7.79740301822E-01
  7.89548227422E-01  7.99479521540E-01  8.09535735959E-01  8.19718441985E-01
  8.30029230684E-01  8.40469713140E-01  8.51041520698E-01  8.61746305225E-01
  8.72585739365E-01  8.83561516803E-01  8.94675352525E-01  9.05928983092E-01
  9.17324166905E-01  9.28862684485E-01  9.40546338750E-01  9.52376955294E-01
  9.64356382674E-01  9.76486492702E-01  9.88769180730E-01  1.00120636595E+00
  1.01379999171E+00  1.02655202578E+00  1.03946446069E+00  1.05253931404E+00
  1.06577862879E+00  1.07918447363E+00  1.09275894323E+00  1.10650415865E+00
  1.12042226758E+00  1.13451544478E+00  1.14878589233E+00  1.16323584000E+00
  1.17786754565E+00  1.19268329549E+00  1.20768540453E+00  1.22287621686E+00
  1.23825810610E+00  1.25383347568E+00  1.26960475930E+00  1.28557442124E+00
  1.30174495679E+00  1.31811889265E+00  1.33469878727E+00  1.35148723129E+00
  1.36848684793E+00  1.38570029343E+00  1.40313025742E+00  1.42077946337E+00
  1.43865066900E+00  1.45674666673E+00  1.47507028408E+00  1.49362438417E+00
  1.51241186610E+00  1.53143566547E+00  1.55069875478E+00  1.57020414392E+00
  1.58995488065E+00  1.60995405107E+00  1.63020478008E+00  1.65071023191E+00
  1.67147361057E+00  1.69249816038E+00  1.71378716647E+00  1.73534395530E+00
  1.75717189515E+00  1.77927439668E+00  1.80165491346E+00  1.82431694248E+00
  1.84726402473E+00  1.87049974575E+00  1.89402773616E+00  1.91785167226E+00
  1.94197527658E+00  1.96640231849E+00  1.99113661476E+00  2.01618203018E+00
  2.04154247814E+00  2.06722192127E+00  2.09322437203E+00  2.11955389336E+00
  2.14621459929E+00  2.17321065563E+00  2.20054628055E+00  2.22822574530E+00
  2.25625337486E+00  2.28463354860E+00  2.31337070098E+00  2.34246932223E+00
  2.37193395909E+00  2.40176921545E+00  2.43197975314E+00  2.46257029261E+00
  2.49354561370E+00  2.52491055637E+00  2.55667002145E+00  2.58882897142E+00
  2.62139243118E+00  2.65436548885E+00  2.68775329652E+00  2.72156107111E+00
  2.75579409516E+00  2.79045771764E+00  2.82555735482E+00  2.86109849108E+00
  2.89708667981E+00  2.93352754422E+00  2.97042677827E+00  3.00779014756E+00
  3.04562349018E+00  3.08393271766E+00  3.12272381590E+00  3.16200284609E+00
  3.20177594567E+00  3.24204932924E+00  3.28282928962E+00  3.32412219876E+00
  3.36593450875E+00  3.40827275286E+00  3.45114354652E+00  3.49455358838E+00
  3.53850966134E+00  3.58301863365E+00  3.62808745990E+00  3.67372318220E+00
  3.71993293122E+00  3.76672392733E+00  3.81410348171E+00  3.86207899753E+00
  3.91065797105E+00  3.95984799283E+00  4.00965674891E+00  4.06009202202E+00
  4.11116169277E+00  4.16287374090E+00  4.21523624652E+00  4.26825739138E+00
  4.32194546014E+00  4.37630884167E+00  4.43135603037E+00  4.48709562745E+00
  4.54353634236E+00  4.60068699407E+00  4.65855651247E+00  4.71715393982E+00
  4.77648843206E+00  4.83656926033E+00  4.89740581240E+00  4.95900759409E+00
  5.02138423080E+00  5.08454546901E+00  5.14850117780E+00  5.21326135037E+00
  5.27883610564E+00  5.34523568978E+00  5.41247047788E+00  5.48055097550E+00
  5.54948782036E+00  5.61929178398E+00  5.68997377338E+00  5.76154483276E+00
  5.83401614524E+00  5.90739903461E+00  5.98170496709E+00  6.05694555315E+00
  6.13313254928E+00  6.21027785984E+00  6.28839353895E+00  6.36749179235E+00
  6.44758497930E+00  6.52868561451E+00  6.61080637014E+00  6.69396007771E+00
  6.77815973016E+00  6.86341848387E+00  6.94974966067E+00  7.03716674999E+00
  7.12568341094E+00  7.21531347442E+00  7.30607094531E+00  7.39797000465E+00
  7.49102501185E+00  7.58525050695E+00  7.68066121288E+00  7.77727203774E+00
  7.87509807719E+00  7.97415461673E+00  8.07445713415E+00  8.17602130193E+00
  8.27886298967E+00  8.38299826660E+00  8.48844340406E+00  8.59521487808E+00
  8.70332937190E+00  8.81280377865E+00  8.92365520391E+00  9.03590096846E+00
  9.14955861092E+00  9.26464589053E+00  9.38118078990E+00  9.49918151786E+00
  9.61866651226E+00  9.73965444287E+00  9.86216421430E+00  9.98621496896E+00
  1.01118260900E+01  1.02390172045E+01  1.03678081862E+01  1.04982191591E+01
  1.06302705000E+01  1.07639828424E+01  1.08993770789E+01  1.10364743653E+01
  1.11752961233E+01  1.13158640441E+01  1.14582000916E+01  1.16023265062E+01
  1.17482658079E+01  1.18960408000E+01  1.20456745728E+01  1.21971905067E+01
  1.23506122764E+01  1.25059638544E+01  1.26632695147E+01  1.28225538366E+01
  1.29838417087E+01  1.31471583325E+01  1.33125292264E+01  1.34799802302E+01
  1.36495375083E+01  1.38212275544E+01  1.39950771954E+01  1.41711135957E+01
  1.43493642614E+01  1.45298570444E+01  1.47126201471E+01  1.48976821266E+01
  1.50850718993E+01  1.52748187452E+01  1.54669523126E+01  1.56615026227E+01
  1.58585000745E+01  1.60579754492E+01  1.62599599153E+01  1.64644850331E+01
  1.66715827602E+01  1.68812854561E+01  1.70936258871E+01  1.73086372320E+01
  1.75263530867E+01  1.77468074697E+01  1.79700348274E+01  1.81960700397E+01
  1.84249484249E+01  1.86567057458E+01  1.88913782149E+01  1.91290025003E+01
  1.93696157313E+01  1.96132555042E+01  1.98599598881E+01  2.01097674311E+01
  2.03627171662E+01  2.06188486174E+01  2.08782018055E+01  2.11408172552E+01
  2.14067360006E+01  2.16759995920E+01  2.19486501024E+01  2.22247301341E+01
  2.25042828251E+01  2.27873518561E+01  2.30739814572E+01  2.33642164148E+01
  2.36581020787E+01  2.39556843693E+01  2.42570097842E+01  2.45621254063E+01
  2.48710789105E+01  2.51839185713E+01  2.55006932707E+01  2.58214525052E+01
  2.61462463943E+01  2.64751256875E+01  2.68081417730E+01  2.71453466852E+01
  2.74867931130E+01  2.78325344082E+01  2.81826245935E+01  2.85371183713E+01
  2.88960711318E+01  2.92595389622E+01  2.96275786552E+01  3.00002477176E+01
  3.03776043797E+01  3.07597076043E+01  3.11466170958E+01  3.15383933096E+01
  3.19350974615E+01  3.23367915374E+01  3.27435383027E+01  3.31554013125E+01
  3.35724449212E+01  3.39947342928E+01  3.44223354107E+01  3.48553150886E+01
  3.52937409804E+01  3.57376815910E+01  3.61872062870E+01  3.66423853077E+01
  3.71032897756E+01  3.75699917081E+01  3.80425640282E+01  3.85210805763E+01
  3.90056161216E+01  3.94962463738E+01  3.99930479948E+01  4.04960986110E+01
  4.10054768250E+01  4.15212622281E+01  4.20435354130E+01  4.25723779858E+01
  4.31078725792E+01  4.36501028655E+01  4.41991535691E+01  4.47551104804E+01
  4.53180604688E+01  4.58880914963E+01  4.64652926315E+01  4.70497540632E+01
  4.76415671147E+01  4.82408242579E+01  4.88476191281E+01  4.94620465382E+01
  5.00842024937E+01  5.07141842077E+01  5.13520901162E+01  5.19980198932E+01
  5.26520744667E+01  5.33143560339E+01  5.39849680777E+01  5.46640153825E+01
  5.53516040510E+01  5.60478415203E+01  5.67528365788E+01  5.74666993835E+01
  5.81895414769E+01  5.89214758046E+01  5.96626167327E+01  6.04130800660E+01
  6.11729830661E+01  6.19424444691E+01  6.27215845052E+01  6.35105249165E+01
  6.43093889764E+01  6.51183015093E+01  6.59373889092E+01  6.67667791603E+01
  6.76066018565E+01  6.84569882218E+01  6.93180711308E+01  7.01899851294E+01
  7.10728664560E+01  7.19668530626E+01  7.28720846363E+01  7.37887026216E+01
  7.47168502418E+01  7.56566725218E+01  7.66083163108E+01  7.75719303052E+01
  7.85476650714E+01  7.95356730702E+01  8.05361086796E+01  8.15491282199E+01
  8.25748899774E+01  8.36135542295E+01  8.46652832695E+01  8.57302414323E+01
  8.68085951197E+01  8.79005128267E+01  8.90061651677E+01  9.01257249031E+01
  9.12593669663E+01  9.24072684913E+01  9.35696088401E+01  9.47465696305E+01
  9.59383347653E+01  9.71450904600E+01  9.83670252728E+01  9.96043301334E+01
  1.00857198373E+02
  </PP_R>
  <PP_RAB>
  2.84963114236E-06  2.88547508959E-06  2.92176989818E-06  2.95852123925E-06
  2.99573485529E-06  3.03341656100E-06  3.07157224421E-06  3.11020786684E-06
  3.14932946578E-06  3.18894315385E-06  3.22905512077E-06  3.26967163413E-06
  3.31079904034E-06  3.35244376563E-06  3.39461231707E-06  3.43731128360E-06
  3.48054733702E-06  3.52432723303E-06  3.56865781234E-06  3.61354600170E-06
  3.65899881497E-06  3.70502335425E-06  3.75162681097E-06  3.79881646701E-06
  3.84659969585E-06  3.89498396373E-06  3.94397683076E-06  3.99358595221E-06
  4.04381907958E-06  4.09468406191E-06  4.14618884696E-06  4.19834148245E-06
  4.25115011734E-06  4.30462300308E-06  4.35876849492E-06  4.41359505322E-06
  4.46911124471E-06  4.52532574393E-06  4.58224733451E-06  4.63988491055E-06
  4.69824747805E-06  4.75734415628E-06  4.81718417922E-06  4.87777689698E-06
  4.93913177730E-06  5.00125840701E-06  5.06416649353E-06  5.12786586636E-06
  5.19236647867E-06  5.25767840880E-06  5.32381186188E-06  5.39077717140E-06
  5.45858480082E-06  5.52724534521E-06  5.59676953294E-06  5.66716822730E-06
  5.73845242822E-06  5.81063327400E-06  5.88372204306E-06  5.95773015566E-06
  6.03266917571E-06  6.10855081260E-06  6.18538692298E-06  6.26318951265E-06
  6.34197073842E-06  6.42174291003E-06  6.50251849203E-06  6.58431010577E-06
  6.66713053137E-06  6.75099270967E-06  6.83590974432E-06  6.92189490378E-06
  7.00896162339E-06  7.09712350752E-06  7.18639433164E-06  7.27678804449E-06
  7.36831877028E-06  7.46100081087E-06  7.55484864801E-06  7.64987694563E-06
  7.74610055208E-06  7.84353450251E-06  7.94219402115E-06  8.04209452377E-06
  8.14325162003E-06  8.24568111591E-06  8.34939901625E-06  8.45442152717E-06
  8.56076505865E-06  8.66844622709E-06  8.77748185789E-06  8.88788898809E-06
  8.99968486903E-06  9.11288696903E-06  9.22751297617E-06  9.34358080098E-06
  9.46110857930E-06  9.58011467508E-06  9.70061768328E-06  9.82263643272E-06
  9.94618998909E-06  1.00712976579E-05  1.01979789874E-05  1.03262537719E-05
  1.04561420546E-05  1.05876641307E-05  1.07208405509E-05  1.08556921243E-05
  1.09922399216E-05  1.11305052788E-05  1.12705098000E-05  1.14122753614E-05
  1.15558241140E-05  1.17011784876E-05  1.18483611942E-05  1.19973952313E-05
  1.21483038859E-05  1.23011107376E-05  1.24558396629E-05  1.26125148385E-05
  1.27711607452E-05  1.29318021718E-05  1.30944642187E-05  1.32591723023E-05
  1.34259521586E-05  1.35948298472E-05  1.37658317557E-05  1.39389846033E-05
  1.41143154457E-05  1.42918516785E-05  1.44716210423E-05  1.46536516263E-05
  1.48379718732E-05  1.50246105833E-05  1.52135969195E-05  1.54049604111E-05
  1.55987309591E-05  1.57949388406E-05  1.59936147134E-05  1.61947896210E-05
  1.63984949974E-05  1.66047626721E-05  1.68136248747E-05  1.70251142404E-05
  1.72392638149E-05  1.74561070594E-05  1.76756778561E-05  1.78980105135E-05
  1.81231397714E-05  1.83511008068E-05  1.85819292390E-05  1.88156611354E-05
  1.90523330172E-05  1.92919818648E-05  1.95346451238E-05  1.97803607109E-05
  2.00291670196E-05  2.02811029263E-05  2.05362077967E-05  2.07945214913E-05
  2.10560843721E-05  2.13209373091E-05  2.15891216858E-05  2.18606794067E-05
  2.21356529033E-05  2.24140851407E-05  2.26960196244E-05  2.29815004074E-05
  2.32705720966E-05  2.35632798601E-05  2.38596694339E-05  2.41597871297E-05
  2.44636798413E-05  2.47713950527E-05  2.50829808450E-05  2.53984859040E-05
  2.57179595282E-05  2.60414516358E-05  2.63690127733E-05  2.67006941226E-05
  2.70365475098E-05  2.73766254124E-05  2.77209809685E-05  2.80696679843E-05
  2.84227409428E-05  2.87802550124E-05  2.91422660554E-05  2.95088306368E-05
  2.98800060329E-05  3.02558502409E-05  3.06364219869E-05  3.10217807363E-05
  3.14119867020E-05  3.18071008545E-05  3.22071849313E-05  3.26123014462E-05
  3.30225136995E-05  3.34378857879E-05  3.38584826139E-05  3.42843698967E-05
  3.47156141820E-05  3.51522828527E-05  3.55944441391E-05  3.60421671298E-05
  3.64955217825E-05  3.69545789347E-05  3.74194103150E-05  3.78900885543E-05
  3.83666871971E-05  3.88492807128E-05  3.93379445076E-05  3.98327549363E-05
  4.03337893140E-05  4.08411259283E-05  4.13548440517E-05  4.18750239536E-05
  4.24017469131E-05  4.29350952319E-05  4.34751522467E-05  4.40220023424E-05
  4.45757309656E-05  4.51364246375E-05  4.57041709675E-05  4.62790586672E-05
  4.68611775640E-05  4.74506186151E-05  4.80474739219E-05  4.86518367443E-05
  4.92638015152E-05  4.98834638552E-05  5.05109205880E-05  5.11462697549E-05
  5.17896106305E-05  5.24410437381E-05  5.31006708655E-05  5.37685950808E-05
  5.44449207484E-05  5.51297535457E-05  5.58232004791E-05  5.65253699012E-05
  5.72363715273E-05  5.79563164529E-05  5.86853171709E-05  5.94234875891E-05
  6.01709430481E-05  6.09278003394E-05  6.16941777234E-05  6.24701949482E-05
  6.32559732681E-05  6.40516354625E-05  6.48573058553E-05  6.56731103341E-05
  6.64991763699E-05  6.73356330374E-05  6.81826110345E-05  6.90402427033E-05
  6.99086620505E-05  7.07880047684E-05  7.16784082560E-05  7.25800116408E-05
  7.34929558000E-05  7.44173833831E-05  7.53534388338E-05  7.63012684126E-05
  7.72610202198E-05  7.82328442186E-05  7.92168922585E-05  8.02133180990E-05
  8.12222774336E-05  8.22439279143E-05  8.32784291761E-05  8.43259428619E-05
  8.53866326478E-05  8.64606642688E-05  8.75482055444E-05  8.86494264054E-05
  8.97644989195E-05  9.08935973192E-05  9.20368980285E-05  9.31945796903E-05
  9.43668231947E-05  9.55538117073E-05  9.67557306974E-05  9.79727679673E-05
  9.92051136815E-05  1.00452960396E-04  1.01716503091E-04  1.02995939196E-04
  1.04291468626E-04  1.05603293810E-04  1.06931619724E-04  1.08276653921E-04
  1.09638606565E-04  1.11017690465E-04  1.12414121104E-04  1.13828116679E-04
  1.15259898129E-04  1.16709689172E-04  1.18177716342E-04  1.19664209020E-04
  1.21169399474E-04  1.22693522894E-04  1.24236817426E-04  1.25799524213E-04
  1.27381887432E-04  1.28984154331E-04  1.30606575265E-04  1.32249403743E-04
  1.33912896460E-04  1.35597313338E-04  1.37302917573E-04  1.39029975668E-04
  1.40778757480E-04  1.42549536259E-04  1.44342588693E-04  1.46158194950E-04
  1.47996638722E-04  1.49858207271E-04  1.51743191469E-04  1.53651885849E-04
  1.55584588650E-04  1.57541601858E-04  1.59523231263E-04  1.61529786497E-04
  1.63561581089E-04  1.65618932510E-04  1.67702162227E-04  1.69811595748E-04
  1.71947562676E-04  1.74110396761E-04  1.76300435949E-04  1.78518022439E-04
  1.80763502734E-04  1.83037227693E-04  1.85339552592E-04  1.87670837173E-04
  1.90031445704E-04  1.92421747035E-04  1.94842114655E-04  1.97292926752E-04
  1.99774566271E-04  2.02287420972E-04  2.04831883494E-04  2.07408351414E-04
  2.10017227312E-04  2.12658918828E-04  2.15333838733E-04  2.18042404989E-04
  2.20785040814E-04  2.23562174751E-04  2.26374240732E-04  2.29221678149E-04
  2.32104931920E-04  2.35024452558E-04  2.37980696246E-04  2.40974124901E-04
  2.44005206254E-04  2.47074413916E-04  2.50182227459E-04  2.53329132483E-04
  2.56515620700E-04  2.59742190004E-04  2.63009344554E-04  2.66317594849E-04
  2.69667457811E-04  2.73059456861E-04  2.76494122007E-04  2.79971989921E-04
  2.83493604029E-04  2.87059514590E-04  2.90670278783E-04  2.94326460799E-04
  2.98028631924E-04  3.01777370628E-04  3.05573262660E-04  3.09416901137E-04
  3.13308886634E-04  3.17249827282E-04  3.21240338860E-04  3.25281044896E-04
  3.29372576756E-04  3.33515573751E-04  3.37710683234E-04  3.41958560698E-04
  3.46259869882E-04  3.50615282876E-04  3.55025480221E-04  3.59491151020E-04
  3.64012993042E-04  3.68591712835E-04  3.73228025833E-04  3.77922656470E-04
  3.82676338291E-04  3.87489814068E-04  3.92363835916E-04  3.97299165413E-04
  4.02296573712E-04  4.07356841669E-04  4.12480759962E-04  4.17669129213E-04
  4.22922760114E-04  4.28242473558E-04  4.33629100759E-04  4.39083483390E-04
  4.44606473708E-04  4.50198934692E-04  4.55861740176E-04  4.61595774984E-04
  4.67401935071E-04  4.73281127661E-04  4.79234271390E-04  4.85262296450E-04
  4.91366144730E-04  4.97546769970E-04  5.03805137906E-04  5.10142226419E-04
  5.16559025692E-04  5.23056538365E-04  5.29635779686E-04  5.36297777675E-04
  5.43043573283E-04  5.49874220554E-04  5.56790786790E-04  5.63794352720E-04
  5.70886012665E-04  5.78066874710E-04  5.85338060881E-04  5.92700707315E-04
  6.00155964440E-04  6.07704997155E-04  6.15348985013E-04  6.23089122402E-04
  6.30926618733E-04  6.38862698633E-04  6.46898602129E-04  6.55035584847E-04