<PP_INFO>
Generated using ld1 code (trou)
Author: P. Giannozzi  Generation date: 2001?
Info: Bromine PW91 4S1.50 4P4.50 4D0.50, l=1 local, Martins-Troullier
    1        The Pseudo was generated with a Scalar-Relativistic Calculation
  0.00000000000E+00    Local Potential cutoff radius
nl pn  l   occ               Rcut            Rcut US             E pseu
4S  0  0  1.50      1.34000000000      0.00000000000      0.00000000000
4P  0  1  4.50      1.56000000000      0.00000000000      0.00000000000
4D  0  2  0.50      3.14000000000      0.00000000000      0.00000000000
</PP_INFO>


<PP_HEADER>
   0                   Version Number
  Br                   Element
   NC                  Norm - Conserving pseudopotential
    F                  Nonlinear Core Correction
 SLA  PW   GGX  GGC    PW91 Exchange-Correlation functional
    7.00000000000      Z valence
    0.00000000000      Total energy
  0.0000000  0.0000000 Suggested cutoff for wfc and rho
    2                  Max angular momentum component
  313                  Number of points in mesh
    3    2             Number of Wavefunctions, Number of Projectors
 Wavefunctions         nl  l   occ
                       4S  0  1.50
                       4P  1  4.50
                       4D  2  0.50
</PP_HEADER>


<PP_MESH>
  <PP_R>
  9.58464651150E-06  1.00760618465E-05  1.05926725845E-05  1.11357705215E-05
  1.17067136851E-05  1.23069297307E-05  1.29379195111E-05  1.36012608292E-05
  1.42986123840E-05  1.50317179176E-05  1.58024105757E-05  1.66126174913E-05
  1.74643646037E-05  1.83597817244E-05  1.93011078627E-05  2.02906968241E-05
  2.13310230965E-05  2.24246880375E-05  2.35744263790E-05  2.47831130659E-05
  2.60537704444E-05  2.73895758198E-05  2.87938694014E-05  3.02701626545E-05
  3.18221470813E-05  3.34537034512E-05  3.51689115050E-05  3.69720601562E-05
  3.88676582157E-05  4.08604456659E-05  4.29554055136E-05  4.51577762496E-05
  4.74730649478E-05  4.99070610360E-05  5.24658507723E-05  5.51558324636E-05
  5.79837324656E-05  6.09566220011E-05  6.40819348425E-05  6.73674858997E-05
  7.08214907619E-05  7.44525862402E-05  7.82698519648E-05  8.22828330882E-05
  8.65015641536E-05  9.09365941860E-05  9.55990130706E-05  1.00500479283E-04
  1.05653249042E-04  1.11070206956E-04  1.16764898242E-04  1.22751562593E-04
  1.29045169789E-04  1.35661457126E-04  1.42616968769E-04  1.49929097119E-04
  1.57616126307E-04  1.65697277910E-04  1.74192759015E-04  1.83123812750E-04
  1.92512771402E-04  2.02383112259E-04  2.12759516312E-04  2.23667929978E-04
  2.35135629972E-04  2.47191291518E-04  2.59865060048E-04  2.73188626587E-04
  2.87195306990E-04  3.01920125253E-04  3.17399901093E-04  3.33673342011E-04
  3.50781140088E-04  3.68766073728E-04  3.87673114634E-04  4.07549540257E-04
  4.28445052014E-04  4.50411899567E-04  4.73505011479E-04  4.97782132557E-04
  5.23303968250E-04  5.50134336440E-04  5.78340327023E-04  6.07992469668E-04
  6.39164910176E-04  6.71935595886E-04  7.06386470581E-04  7.42603679393E-04
  7.80677784208E-04  8.20703990121E-04  8.62782383495E-04  9.07018182231E-04
  9.53521998866E-04  1.00241011717E-03  1.05380478289E-03  1.10783450948E-03
  1.16463439938E-03  1.22434648192E-03  1.28712006839E-03  1.35311212546E-03
  1.42248766765E-03  1.49542016996E-03  1.57209200161E-03  1.65269488214E-03
  1.73743036072E-03  1.82651032019E-03  1.92015750685E-03  2.01860608744E-03
  2.12210223470E-03  2.23090474289E-03  2.34528567497E-03  2.46553104284E-03
  2.59194152255E-03  2.72483320616E-03  2.86453839208E-03  3.01140641605E-03
  3.16580452464E-03  3.32811879353E-03  3.49875509294E-03  3.67814010251E-03
  3.86672237819E-03  4.06497347390E-03  4.27338912065E-03  4.49249046610E-03
  4.72282537776E-03  4.96496981287E-03  5.21952925865E-03  5.48714024631E-03
  5.76847194270E-03  6.06422782362E-03  6.37514743281E-03  6.70200823125E-03
  7.04562754119E-03  7.40686458988E-03  7.78662265811E-03  8.18585133886E-03
  8.60554891178E-03  9.04676483940E-03  9.51060239137E-03  9.99822140318E-03
  1.05108411763E-02  1.10497435273E-02  1.16162759926E-02  1.22118551985E-02
  1.28379704033E-02  1.34961872212E-02  1.41881515369E-02  1.49155936217E-02
  1.56803324598E-02  1.64842802966E-02  1.73294474204E-02  1.82179471892E-02
  1.91520013153E-02  2.01339454205E-02  2.11662348766E-02  2.22514509449E-02
  2.33923072308E-02  2.45916564693E-02  2.58524976582E-02  2.71779835572E-02
  2.85714285714E-02  3.00363170393E-02  3.15763119450E-02  3.31952640780E-02
  3.48972216617E-02  3.66864404768E-02  3.85673945022E-02  4.05447871027E-02
  4.26235627898E-02  4.48089195854E-02  4.71063220200E-02  4.95215147962E-02
  5.20605371540E-02  5.47297379718E-02  5.75357916420E-02  6.04857147604E-02
  6.35868836712E-02  6.68470529122E-02  7.02743746045E-02  7.38774188376E-02
  7.76651950988E-02  8.16471748018E-02  8.58333149699E-02  9.02340831340E-02
  9.48604835068E-02  9.97240844989E-02  1.04837047646E-01  1.10212158020E-01
  1.15862856196E-01  1.21803271862E-01  1.28048259153E-01  1.34613433788E-01
  1.41515212126E-01  1.48770852205E-01  1.56398496906E-01  1.64417219314E-01
  1.72847070412E-01  1.81709129217E-01  1.91025555494E-01  2.00819645160E-01
  2.11115888541E-01  2.21940031609E-01  2.33319140359E-01  2.45281668491E-01
  2.57857528555E-01  2.71078166753E-01  2.84976641566E-01  2.99587706421E-01
  3.14947896590E-01  3.31095620549E-01  3.48071256020E-01  3.65917250933E-01
  3.84678229571E-01  4.04401104154E-01  4.25135192139E-01  4.46932339548E-01
  4.69847050603E-01  4.93936624016E-01  5.19261296270E-01  5.45884392235E-01
  5.73872483520E-01  6.03295554930E-01  6.34227179470E-01  6.66744702313E-01
  7.00929434203E-01  7.36866854777E-01  7.74646826305E-01  8.14363818393E-01
  8.56117144211E-01  9.00011208821E-01  9.46155770248E-01  9.94666213931E-01
  1.04566384125E+00  1.09927617283E+00  1.15563726743E+00  1.21488805714E+00
  1.27717669981E+00  1.34265894947E+00  1.41149854587E+00  1.48386762385E+00
  1.55994714380E+00  1.63992734416E+00  1.72400821707E+00  1.81240000852E+00
  1.90532374403E+00  2.00301178133E+00  2.10570839142E+00  2.21367036929E+00
  2.32716767614E+00  2.44648411435E+00  2.57191803716E+00  2.70378309471E+00
  2.84240901834E+00  2.98814244506E+00  3.14134778435E+00  3.30240812935E+00
  3.47172621482E+00  3.64972542417E+00  3.83685084814E+00  4.03357039776E+00
  4.24037597436E+00  4.45778469961E+00  4.68634020857E+00  4.92661400905E+00
  5.17920691072E+00  5.44475052739E+00  5.72390885642E+00  6.01737993905E+00
  6.32589760583E+00  6.65023331165E+00  6.99119806469E+00  7.34964445445E+00
  7.72646878360E+00  8.12261330925E+00  8.53906859906E+00  8.97687600816E+00
  9.43713028313E+00  9.92098229939E+00  1.04296419390E+01  1.09643811160E+01
  1.15265369569E+01  1.21175151441E+01  1.27387934309E+01  1.33919253366E+01
  1.40785440312E+01  1.48003664191E+01  1.55591974322E+01  1.63569345432E+01
  1.71955725106E+01  1.80772083661E+01  1.90040466584E+01  1.99784049662E+01
  2.10027196926E+01  2.20795521581E+01  2.32115950048E+01  2.44016789293E+01
  2.56527797614E+01  2.69680259049E+01  2.83507061601E+01  2.98042779480E+01
  3.13323759551E+01  3.29388212224E+01  3.46276306998E+01  3.64030272907E+01
  3.82694504113E+01  4.02315670916E+01  4.22942836453E+01  4.44627579382E+01
  4.67424122856E+01  4.91389470107E+01  5.16583546987E+01  5.43069351811E+01
  5.70913112887E+01
  </PP_R>
  <PP_RAB>
  4.79232325575E-07  5.03803092326E-07  5.29633629227E-07  5.56788526075E-07
  5.85335684257E-07  6.15346486537E-07  6.46895975553E-07  6.80063041460E-07
  7.14930619201E-07  7.51585895880E-07  7.90120528783E-07  8.30630874563E-07
  8.73218230185E-07  9.17989086222E-07  9.65055393134E-07  1.01453484120E-06
  1.06655115482E-06  1.12123440187E-06  1.17872131895E-06  1.23915565330E-06
  1.30268852222E-06  1.36947879099E-06  1.43969347007E-06  1.51350813273E-06
  1.59110735406E-06  1.67268517256E-06  1.75844557525E-06  1.84860300781E-06
  1.94338291078E-06  2.04302228330E-06  2.14777027568E-06  2.25788881248E-06
  2.37365324739E-06  2.49535305180E-06  2.62329253861E-06  2.75779162318E-06
  2.89918662328E-06  3.04783110005E-06  3.20409674212E-06  3.36837429499E-06
  3.54107453809E-06  3.72262931201E-06  3.91349259824E-06  4.11414165441E-06
  4.32507820768E-06  4.54682970930E-06  4.77995065353E-06  5.02502396416E-06
  5.28266245212E-06  5.55351034782E-06  5.83824491209E-06  6.13757812965E-06
  6.45225848945E-06  6.78307285630E-06  7.13084843844E-06  7.49645485597E-06
  7.88080631537E-06  8.28486389549E-06  8.70963795074E-06  9.15619063751E-06
  9.62563857012E-06  1.01191556129E-05  1.06379758156E-05  1.11833964989E-05
  1.17567814986E-05  1.23595645759E-05  1.29932530024E-05  1.36594313293E-05
  1.43597653495E-05  1.50960062626E-05  1.58699950546E-05  1.66836671006E-05
  1.75390570044E-05  1.84383036864E-05  1.93836557317E-05  2.03774770129E-05
  2.14222526007E-05  2.25205949784E-05  2.36752505739E-05  2.48891066278E-05
  2.61651984125E-05  2.75067168220E-05  2.89170163511E-05  3.03996234834E-05
  3.19582455088E-05  3.35967797943E-05  3.53193235291E-05  3.71301839697E-05
  3.90338892104E-05  4.10351995061E-05  4.31391191747E-05  4.53509091115E-05
  4.76760999433E-05  5.01205058584E-05  5.26902391446E-05  5.53917254739E-05
  5.82317199691E-05  6.12173240958E-05  6.43560034194E-05  6.76556062731E-05
  7.11243833827E-05  7.47710084978E-05  7.86046000806E-05  8.26347441069E-05
  8.68715180360E-05  9.13255160096E-05  9.60078753425E-05  1.00930304372E-04
  1.06105111735E-04  1.11545237145E-04  1.17264283748E-04  1.23276552142E-04
  1.29597076128E-04  1.36241660308E-04  1.43226919604E-04  1.50570320803E-04
  1.58290226232E-04  1.66405939676E-04  1.74937754647E-04  1.83907005125E-04
  1.93336118909E-04  2.03248673695E-04  2.13669456032E-04  2.24624523305E-04
  2.36141268888E-04  2.48248490643E-04  2.60976462932E-04  2.74357012315E-04
  2.88423597135E-04  3.03211391181E-04  3.18757371641E-04  3.35100411563E-04
  3.52281377059E-04  3.70343229494E-04  3.89331132906E-04  4.09292566943E-04
  4.30277445589E-04  4.52338241970E-04  4.75530119569E-04  4.99911070159E-04
  5.25542058816E-04  5.52487176364E-04  5.80813799629E-04  6.10592759927E-04
  6.41898520167E-04  6.74809361059E-04  7.09407576845E-04  7.45779681087E-04
  7.84016622991E-04  8.24214014829E-04  8.66472371018E-04  9.10897359460E-04
  9.57600065765E-04  1.00669727103E-03  1.05831174383E-03  1.11257254724E-03
  1.16961536154E-03  1.22958282346E-03  1.29262488291E-03  1.35889917786E-03
  1.42857142857E-03  1.50181585197E-03  1.57881559725E-03  1.65976320390E-03
  1.74486108309E-03  1.83432202384E-03  1.92836972511E-03  2.02723935513E-03
  2.13117813949E-03  2.24044597927E-03  2.35531610100E-03  2.47607573981E-03
  2.60302685770E-03  2.73648689859E-03  2.87678958210E-03  3.02428573802E-03
  3.17934418356E-03  3.34235264561E-03  3.51371873022E-03  3.69387094188E-03
  3.88325975494E-03  4.08235874009E-03  4.29166574849E-03  4.51170415670E-03
  4.74302417534E-03  4.98620422495E-03  5.24185238231E-03  5.51060790100E-03
  5.79314280978E-03  6.09016359310E-03  6.40241295763E-03  6.73067168942E-03
  7.07576060628E-03  7.43854261026E-03  7.81992484532E-03  8.22086096572E-03
  8.64235352059E-03  9.08545646086E-03  9.55127777468E-03  1.00409822580E-02
  1.05557944270E-02  1.10970015804E-02  1.16659570180E-02  1.22640834245E-02
  1.28928764278E-02  1.35539083377E-02  1.42488320783E-02  1.49793853210E-02
  1.57473948295E-02  1.65547810275E-02  1.74035628010E-02  1.82958625467E-02
  1.92339114786E-02  2.02200552077E-02  2.12567596070E-02  2.23466169774E-02
  2.34923525301E-02  2.46968312008E-02  2.59630648135E-02  2.72942196118E-02
  2.86936241760E-02  3.01647777465E-02  3.17113589735E-02  3.33372351156E-02
  3.50464717102E-02  3.68433427388E-02  3.87323413152E-02  4.07181909197E-02
  4.28058572106E-02  4.50005604411E-02  4.73077885124E-02  4.97333106966E-02
  5.22831920624E-02  5.49638086415E-02  5.77818633715E-02  6.07444028572E-02
  6.38588349904E-02  6.71329474737E-02  7.05749272936E-02  7.41933811926E-02
  7.79973571902E-02  8.19963672078E-02  8.62004108534E-02  9.06200004259E-02
  9.52661872013E-02  1.00150589067E-01  1.05285419571E-01  1.10683518465E-01
  1.16358383807E-01  1.22324205717E-01  1.28595901858E-01  1.35189154736E-01
  1.42120450917E-01  1.49407122253E-01  1.57067389217E-01  1.65120406467E-01
  1.73586310741E-01  1.82486271209E-01  1.91842542407E-01  2.01678519888E-01
  2.12018798718E-01  2.22889234981E-01  2.34317010428E-01  2.46330700453E-01
  2.58960345536E-01  2.72237526369E-01  2.86195442821E-01  3.00868996952E-01
  3.16294880292E-01  3.32511665582E-01  3.49559903235E-01  3.67482222723E-01
  3.86323439180E-01  4.06130665463E-01  4.26953429953E-01  4.48843800408E-01
  4.71856514157E-01  4.96049114970E-01  5.21482096950E-01  5.48219055802E-01
  5.76326847847E-01  6.05875757207E-01  6.36939671546E-01  6.69596266832E-01
  7.03927201562E-01  7.40018320955E-01  7.77959871608E-01  8.17846727162E-01
  8.59778625532E-01  9.03860418303E-01  9.50202332921E-01  9.98920248308E-01
  1.05013598463E+00  1.10397760791E+00  1.16057975024E+00  1.22008394647E+00
  1.28263898807E+00  1.34840129525E+00  1.41753530801E+00  1.49021389740E+00
  1.56661879775E+00  1.64694106112E+00  1.73138153499E+00  1.82015136453E+00
  1.91347252056E+00  2.01157835458E+00  2.11471418226E+00  2.22313789691E+00
  2.33712061428E+00  2.45694735054E+00  2.58291773494E+00  2.71534675906E+00
  2.85456556443E+00
  </PP_RAB>
</PP_MESH>


<PP_LOCAL>
 -4.53371040000E+00 -4.53371410000E+00 -4.53371940000E+00 -4.53376700000E+00
 -4.53379780000E+00 -4.53376500000E+00 -4.53378540000E+00 -4.53381430000E+00
 -4.53380770000E+00 -4.53381350000E+00 -4.53383530000E+00 -4.53385820000E+00
 -4.53388400000E+00 -4.53389250000E+00 -4.53390510000E+00 -4.53394060000E+00
 -4.53396860000E+00 -4.53399300000E+00 -4.53402400000E+00 -4.53406350000E+00
 -4.53410280000E+00 -4.53414330000E+00 -4.53419550000E+00 -4.53424930000E+00
 -4.53430610000E+00 -4.53437130000E+00 -4.53444360000E+00 -4.53452380000E+00
 -4.53461270000E+00 -4.53470700000E+00 -4.53481510000E+00 -4.53493720000E+00
 -4.53506560000E+00 -4.53521010000E+00 -4.53537240000E+00 -4.53554880000E+00
 -4.53574480000E+00 -4.53596140000E+00 -4.53620020000E+00 -4.53646480000E+00
 -4.53675660000E+00 -4.53707990000E+00 -4.53743640000E+00 -4.53783050000E+00
 -4.53826700000E+00 -4.53874800000E+00 -4.53927990000E+00 -4.53986820000E+00
 -4.54051810000E+00 -4.54123610000E+00 -4.54202950000E+00 -4.54290660000E+00
 -4.54387580000E+00 -4.54494640000E+00 -4.54612960000E+00 -4.54743700000E+00
 -4.54888160000E+00 -4.55047810000E+00 -4.55224180000E+00 -4.55419030000E+00
 -4.55634350000E+00 -4.55872220000E+00 -4.56135020000E+00 -4.56425360000E+00
 -4.56746100000E+00 -4.57100400000E+00 -4.57491750000E+00 -4.57924020000E+00
 -4.58401470000E+00 -4.58928750000E+00 -4.59511040000E+00 -4.60154020000E+00
 -4.60863970000E+00 -4.61647760000E+00 -4.62512990000E+00 -4.63468020000E+00
 -4.64522010000E+00 -4.65685040000E+00 -4.66968200000E+00 -4.68383620000E+00
 -4.69944640000E+00 -4.71665860000E+00 -4.73563230000E+00 -4.75654240000E+00
 -4.77957950000E+00 -4.80495160000E+00 -4.83288510000E+00 -4.86362620000E+00
 -4.89744190000E+00 -4.93462120000E+00 -4.97547620000E+00 -5.02034310000E+00
 -5.06958250000E+00 -5.12358010000E+00 -5.18274680000E+00 -5.24751770000E+00
 -5.31835150000E+00 -5.39572820000E+00 -5.48014600000E+00 -5.57211710000E+00
 -5.67216220000E+00 -5.78080240000E+00 -5.89854990000E+00 -6.02589520000E+00
 -6.16329230000E+00 -6.31114020000E+00 -6.46976020000E+00 -6.63937010000E+00
 -6.82005340000E+00 -7.01172450000E+00 -7.21408880000E+00 -7.42659990000E+00
 -7.64841260000E+00 -7.87833490000E+00 -8.11477950000E+00 -8.35571890000E+00
 -8.59864760000E+00 -8.84055580000E+00 -9.07792170000E+00 -9.30672930000E+00
 -9.52252000000E+00 -9.72048530000E+00 -9.89561090000E+00 -1.00428760000E+01
 -1.01575110000E+01 -1.02353130000E+01 -1.02730070000E+01 -1.02686260000E+01
 -1.02218940000E+01 -1.01345490000E+01 -1.00105550000E+01 -9.85616200000E+00
 -9.67972320000E+00 -9.49126280000E+00 -9.30176360000E+00 -9.12222100000E+00
 -8.96255470000E+00 -8.83052610000E+00 -8.73084680000E+00 -8.66467020000E+00
 -8.62960870000E+00 -8.62032600000E+00 -8.62962000000E+00 -8.64977900000E+00
 -8.67390960000E+00 -8.69693130000E+00 -8.71603270000E+00 -8.73055460000E+00
 -8.74143450000E+00 -8.75046490000E+00 -8.75961450000E+00 -8.77057800000E+00
 -8.78458760000E+00 -8.80242050000E+00 -8.82449910000E+00 -8.85099820000E+00
 -8.88192040000E+00 -8.91713140000E+00 -8.95637090000E+00 -8.99925040000E+00
 -9.04524830000E+00 -9.09370620000E+00 -9.14382950000E+00 -9.19469250000E+00
 -9.24524890000E+00 -9.29434940000E+00 -9.34076500000E+00 -9.38321790000E+00
 -9.42041890000E+00 -9.45110990000E+00 -9.47411290000E+00 -9.48838040000E+00
 -9.49304710000E+00 -9.48747810000E+00 -9.47131100000E+00 -9.44448650000E+00
 -9.40726460000E+00 -9.36022310000E+00 -9.30423730000E+00 -9.24044170000E+00
 -9.17017520000E+00 -9.09491620000E+00 -9.01621180000E+00 -8.93560860000E+00
 -8.85458960000E+00 -8.77452260000E+00 -8.69662160000E+00 -8.62192190000E+00
 -8.55126850000E+00 -8.48531410000E+00 -8.42452650000E+00 -8.36919990000E+00
 -8.31947060000E+00 -8.27533370000E+00 -8.23666100000E+00 -8.20321820000E+00
 -8.17468270000E+00 -8.15066070000E+00 -8.13070410000E+00 -8.11432700000E+00
 -8.10102270000E+00 -8.09027940000E+00 -8.08159760000E+00 -8.07450680000E+00
 -8.06858290000E+00 -8.06346680000E+00 -8.05888340000E+00 -8.05466120000E+00
 -8.05075160000E+00 -8.04724880000E+00 -8.04440700000E+00 -8.04265760000E+00
 -8.04262220000E+00 -8.04512330000E+00 -8.05119090000E+00 -8.06206310000E+00
 -8.07918070000E+00 -8.10417340000E+00 -8.13883570000E+00 -8.18508960000E+00
 -8.24493210000E+00 -8.32036290000E+00 -8.41328680000E+00 -8.52538550000E+00
 -8.65795170000E+00 -8.81168280000E+00 -8.98643830000E+00 -9.18097810000E+00
 -9.39270830000E+00 -9.61743370000E+00 -9.84897690000E+00 -1.00790230000E+01
 -1.03033090000E+01 -1.04561190000E+01 -1.05501740000E+01 -1.05765440000E+01
 -1.04335960000E+01 -1.02159370000E+01 -9.88155580000E+00 -9.44540040000E+00
 -8.98446270000E+00 -8.54106750000E+00 -8.12191520000E+00 -7.72453290000E+00
 -7.34721190000E+00 -6.98864360000E+00 -6.64774970000E+00 -6.32358600000E+00
 -6.01529170000E+00 -5.72206080000E+00 -5.44312940000E+00 -5.17777450000E+00
 -4.92532330000E+00 -4.68515650000E+00 -4.45668880000E+00 -4.23935190000E+00
 -4.03260280000E+00 -3.83592930000E+00 -3.64884430000E+00 -3.47088280000E+00
 -3.30160140000E+00 -3.14057730000E+00 -2.98740760000E+00 -2.84170900000E+00
 -2.70311670000E+00 -2.57128390000E+00 -2.44588090000E+00 -2.32659390000E+00
 -2.21312460000E+00 -2.10518920000E+00 -2.00251790000E+00 -1.90485400000E+00
 -1.81195310000E+00 -1.72358310000E+00 -1.63952300000E+00 -1.55956250000E+00
 -1.48350180000E+00 -1.41115050000E+00 -1.34232790000E+00 -1.27686180000E+00
 -1.21458850000E+00 -1.15535230000E+00 -1.09900520000E+00 -1.04540610000E+00
 -9.94420930000E-01 -9.45922320000E-01 -8.99789140000E-01 -8.55905970000E-01
 -8.14162990000E-01 -7.74455810000E-01 -7.36685160000E-01 -7.00756610000E-01
 -6.66580310000E-01 -6.34070800000E-01 -6.03146810000E-01 -5.73730990000E-01
 -5.45749800000E-01 -5.19133260000E-01 -4.93814840000E-01 -4.69731200000E-01
 -4.46822140000E-01 -4.25030370000E-01 -4.04301400000E-01 -3.84583380000E-01
 -3.65827030000E-01 -3.47985440000E-01 -3.31013990000E-01 -3.14870240000E-01
 -2.99513840000E-01 -2.84906380000E-01 -2.71011330000E-01 -2.57793950000E-01
 -2.45221190000E-01
</PP_LOCAL>


<PP_NONLOCAL>
  <PP_BETA>
    1    0             Beta    L
   279
  2.00893987418E-05  2.11194049051E-05  2.22022193018E-05  2.33405520161E-05
  2.45372468458E-05  2.57952986515E-05  2.71178520579E-05  2.85082141706E-05
  2.99698613687E-05  3.15064490342E-05  3.31218198362E-05  3.48200111746E-05
  3.66052710068E-05  3.84820639944E-05  4.04550815359E-05  4.25292577179E-05
  4.47097794560E-05  4.70020985668E-05  4.94119478961E-05  5.19453529003E-05
  5.46086483707E-05  5.74084934925E-05  6.03518892544E-05  6.34461977829E-05
  6.66991526452E-05  7.01188927911E-05  7.37139662670E-05  7.74933576604E-05
  8.14665276407E-05  8.56434073982E-05  9.00344401164E-05  9.46506026912E-05
  9.95034426275E-05  1.04605095894E-04  1.09968308890E-04  1.15606511759E-04
  1.21533780132E-04  1.27764954255E-04  1.34315599721E-04  1.41202107469E-04
  1.48441695823E-04  1.56052466931E-04  1.64053445926E-04  1.72464642429E-04
  1.81307097743E-04  1.90602910038E-04  2.00375332423E-04  2.10648792026E-04
  2.21448988117E-04  2.32802923101E-04  2.44738987193E-04  2.57287024013E-04
  2.70478410817E-04  2.84346135575E-04  2.98924874557E-04  3.14251082457E-04
  3.30363080851E-04  3.47301159512E-04  3.65107670547E-04  3.83827139345E-04
  4.03506385525E-04  4.24194601414E-04  4.45943526088E-04  4.68807541770E-04
  4.92843824376E-04  5.18112477663E-04  5.44676674432E-04  5.72602846947E-04
  6.01960834341E-04  6.32824026595E-04  6.65269624900E-04  6.99378739291E-04
  7.35236643270E-04  7.72933045383E-04  8.12562183556E-04  8.54223216297E-04
  8.98020202736E-04  9.44062655434E-04  9.92465849851E-04  1.04335069082E-03
  1.09684440677E-03  1.15308092327E-03  1.21220070701E-03  1.27435163569E-03
  1.33968905603E-03  1.40837651531E-03  1.48058560051E-03  1.55649695243E-03
  1.63630041045E-03  1.72019551963E-03  1.80839196522E-03  1.90111044187E-03
  1.99858275361E-03  2.10105254511E-03  2.20877618748E-03  2.32202285691E-03
  2.44107599159E-03  2.56623317650E-03  2.69780741950E-03  2.83612758659E-03
  2.98153978827E-03  3.13440758662E-03  3.29511324099E-03  3.46405865001E-03
  3.64166614684E-03  3.82838015825E-03  4.02466744426E-03  4.23101895993E-03
  4.44795059884E-03  4.67600510522E-03  4.91575269907E-03  5.16779309684E-03
  5.43275652175E-03  5.71130570637E-03  6.00413740144E-03  6.31198382759E-03
  6.63561531891E-03  6.97584123152E-03  7.33351286647E-03  7.70952370720E-03
  8.10481638917E-03  8.52037842259E-03  8.95725023998E-03  9.41652436601E-03
  9.89935023130E-03  1.04069350426E-02  1.09405519753E-02  1.15015329689E-02
  1.20912835421E-02  1.27112820242E-02  1.33630767194E-02  1.40483033555E-02
  1.47686754403E-02  1.55259984864E-02  1.63221687148E-02  1.71591823002E-02
  1.80391351220E-02  1.89642338876E-02  1.99367975732E-02  2.09592663503E-02
  2.20342039415E-02  2.31643086428E-02  2.43524186008E-02  2.56015158310E-02
  2.69147412213E-02  2.82953950769E-02  2.97469506965E-02  3.12730619008E-02
  3.28775724336E-02  3.45645271976E-02  3.63381809542E-02  3.82030141466E-02
  4.01637395405E-02  4.22253195899E-02  4.43929788723E-02  4.66722138517E-02
  4.90688205012E-02  5.15888959774E-02  5.42388688228E-02  5.70255087160E-02
  5.99559539180E-02  6.30377246391E-02  6.62787553779E-02  6.96874151206E-02
  7.32725332705E-02  7.70434259053E-02  8.10099381167E-02  8.51824706414E-02
  8.95720073640E-02  9.41901673245E-02  9.90492522281E-02  1.04162283491E-01
  1.09543053512E-01  1.15206176562E-01  1.21167177743E-01  1.27442526124E-01
  1.34049744658E-01  1.41007474946E-01  1.48335538833E-01  1.56055115366E-01
  1.64188784513E-01  1.72760685480E-01  1.81796642773E-01  1.91324341097E-01
  2.01373474636E-01  2.11975966463E-01  2.23166150938E-01  2.34981056244E-01
  2.47460620232E-01  2.60648040581E-01  2.74590050692E-01  2.89337337241E-01
  3.04944879482E-01  3.21472439233E-01  3.38984991176E-01  3.57553249518E-01
  3.77254196975E-01  3.98171637470E-01  4.20396753588E-01  4.44028608247E-01
  4.69174681440E-01  4.95951124598E-01  5.24483036674E-01  5.54904214414E-01
  5.87356577498E-01  6.21988880498E-01  6.58954374231E-01  6.98407124735E-01
  7.40496283924E-01  7.85357672954E-01  8.33101486372E-01  8.83794871212E-01
  9.37437652095E-01  9.93928423566E-01  1.05301901422E+00  1.11425286824E+00
  1.17688378219E+00  1.23977119958E+00  1.30124798467E+00  1.35895934975E+00
  1.40967729937E+00  1.44910285320E+00  1.47168629005E+00  1.47052139467E+00
  1.43740852286E+00  1.36323106545E+00  1.23884187787E+00  1.05668703635E+00
  8.13352162902E-01  5.13022219757E-01  1.71402052151E-01 -1.81100739786E-01
 -4.99064874671E-01 -7.27425055652E-01 -8.14910188766E-01 -7.35618899177E-01
 -5.14623902882E-01 -2.49615254973E-01 -7.76234341469E-02 -9.82004129234E-03
  0.00000000000E+00  0.00000000000E+00  0.00000000000E+00  0.00000000000E+00
  0.00000000000E+00  0.00000000000E+00  0.00000000000E+00  0.00000000000E+00
  0.00000000000E+00  0.00000000000E+00  0.00000000000E+00  0.00000000000E+00
  0.00000000000E+00  0.00000000000E+00  0.00000000000E+00  0.00000000000E+00
  0.00000000000E+00  0.00000000000E+00  0.00000000000E+00  0.00000000000E+00
  0.00000000000E+00  0.00000000000E+00  0.00000000000E+00  0.00000000000E+00
  0.00000000000E+00  0.00000000000E+00  0.00000000000E+00  0.00000000000E+00
  0.00000000000E+00  0.00000000000E+00  0.00000000000E+00  0.00000000000E+00
  0.00000000000E+00  0.00000000000E+00  0.00000000000E+00  0.00000000000E+00
  0.00000000000E+00  0.00000000000E+00  0.00000000000E+00
  </PP_BETA>
  <PP_BETA>
    2    2             Beta    L
   279
 -5.39055481174E-16 -6.26293100530E-16 -7.27648788591E-16 -8.45407250076E-16
 -9.82223131688E-16 -1.14118040806E-15 -1.32586250343E-15 -1.54043242882E-15
 -1.78972716903E-15 -2.07936632965E-15 -2.41587896895E-15 -2.80685089263E-15
 -3.26109555294E-15 -3.78885239876E-15 -4.40201861597E-15 -5.11441582807E-15
 -5.94210341734E-15 -6.90373942029E-15 -8.02100072040E-15 -9.31907308234E-15
 -1.08272183223E-14 -1.25794330585E-14 -1.46152161934E-14 -1.69804584871E-14
 -1.97284785039E-14 -2.29212215672E-14 -2.66306607328E-14 -3.09404124513E-14
 -3.59476310326E-14 -4.17651882796E-14 -4.85242245330E-14 -5.63771095124E-14
 -6.55008548893E-14 -7.61011352887E-14 -8.84169058528E-14 -1.02725787261E-13
 -1.19350339936E-13 -1.38665308959E-13 -1.61106109726E-13 -1.87178586716E-13
 -2.17470494992E-13 -2.52664666568E-13 -2.93554465997E-13 -3.41061632060E-13
 -3.96257074377E-13 -4.60385032598E-13 -5.34891121953E-13 -6.21454818162E-13
 -7.22027496401E-13 -8.38876224239E-13 -9.74635144955E-13 -1.13236451296E-12
 -1.31561981795E-12 -1.52853218533E-12 -1.77590100193E-12 -2.06330258572E-12
 -2.39721560541E-12 -2.78516717569E-12 -3.23590256811E-12 -3.75958251964E-12
 -4.36801154489E-12 -5.07490541727E-12 -5.89619892107E-12 -6.85040601065E-12
 -7.95903610837E-12 -9.24708046509E-12 -1.07435749662E-11 -1.24822534160E-11
 -1.45023091278E-11 -1.68492796003E-11 -1.95760693738E-11 -2.27441475233E-11
 -2.64249292975E-11 -3.07013882560E-11 -3.56699241142E-11 -4.14425382052E-11
 -4.81493588467E-11 -5.59415764745E-11 -6.49948380024E-11 -7.55132265394E-11
 -8.77338541277E-11 -1.01932192590E-10 -1.18428313235E-10 -1.37594064808E-10
 -1.59861492240E-10 -1.85732554057E-10 -2.15790440944E-10 -2.50712717619E-10
 -2.91286609708E-10 -3.38426748649E-10 -3.93195787799E-10 -4.56828293246E-10
 -5.30758735309E-10 -6.16653672979E-10 -7.16449322493E-10 -8.32395318209E-10
 -9.67105363236E-10 -1.12361610872E-09 -1.30545552934E-09 -1.51672291692E-09
 -1.76218045048E-09 -2.04736129382E-09 -2.37869454381E-09 -2.76364835705E-09
 -3.21090088669E-09 -3.73053427345E-09 -4.33426184740E-09 -5.03569332050E-09
 -5.85063971557E-09 -6.79747250884E-09 -7.89753619241E-09 -9.17562588403E-09
 -1.06605547105E-08 -1.23857938179E-08 -1.43902332735E-08 -1.67190633124E-08
 -1.94247754607E-08 -2.25683598221E-08 -2.62206833977E-08 -3.04640704933E-08
 -3.53941855810E-08 -4.11221517387E-08 -4.77770987693E-08 -5.55090349009E-08
 -6.44922487577E-08 -7.49292418664E-08 -8.70552646816E-08 -1.01143709650E-07
 -1.17512102803E-07 -1.36529421004E-07 -1.58624345248E-07 -1.84294928439E-07
 -2.14119802972E-07 -2.48771302156E-07 -2.89030465128E-07 -3.35804728662E-07
 -3.90148522579E-07 -4.53286676908E-07 -5.26642471738E-07 -6.11869206405E-07
 -7.10888122853E-07 -8.25930856087E-07 -9.59590566663E-07 -1.11487976878E-06
 -1.29529841097E-06 -1.50491328788E-06 -1.74844817952E-06 -2.03139241009E-06
 -2.36012249131E-06 -2.74204673248E-06 -3.18577306151E-06 -3.70130001130E-06
 -4.30024541603E-06 -4.99610675586E-06 -5.80456272226E-06 -6.74383145152E-06
 -7.83507506779E-06 -9.10287774956E-06 -1.05758050773E-05 -1.22870337840E-05
 -1.42751159564E-05 -1.65848300297E-05 -1.92681947693E-05 -2.23856385363E-05
 -2.60073602744E-05 -3.02148986612E-05 -3.51029819557E-05 -4.07816358692E-05
 -4.73786449147E-05 -5.50424707989E-05 -6.39455082589E-05 -7.42880072234E-05
 -8.63025129796E-05 -1.00259145065E-04 -1.16471519888E-04 -1.35303863194E-04
 -1.57179090637E-04 -1.82588197199E-04 -2.12101296056E-04 -2.46380133143E-04
 -2.86192944052E-04 -3.32431251003E-04 -3.86129769350E-04 -4.48489053748E-04
 -5.20901903420E-04 -6.04983801150E-04 -7.02608324827E-04 -8.15947322868E-04
 -9.47518194927E-04 -1.10023796644E-03 -1.27748462951E-03 -1.48316976389E-03
 -1.72181828321E-03 -1.99866405727E-03 -2.31975396309E-03 -2.69207113921E-03
 -3.12367050235E-03 -3.62383169573E-03 -4.20323472488E-03 -4.87414559340E-03
 -5.65063196876E-03 -6.54878560664E-03 -7.58696453293E-03 -8.78604633260E-03
 -1.01696753866E-02 -1.17645015006E-02 -1.36003780855E-02 -1.57105059955E-02
 -1.81314651642E-02 -2.09030615958E-02 -2.40679659017E-02 -2.76709681161E-02
 -3.17577190178E-02 -3.63728453811E-02 -4.15570566437E-02 -4.73431333285E-02
 -5.37502635898E-02 -6.07764841380E-02 -6.83887850277E-02 -7.65103358896E-02
 -8.50048119513E-02 -9.36576864048E-02 -1.02155175569E-01 -1.10062194955E-01
 -1.16802229799E-01 -1.21644155139E-01 -1.23703404917E-01 -1.21968531310E-01
 -1.15367013258E-01 -1.02886595093E-01 -8.37674931750E-02 -5.77707029968E-02
 -2.55118242773E-02  1.11910008266E-02  4.90575004731E-02  8.33424170670E-02
  1.08316925923E-01  1.18461256395E-01  1.10457239165E-01  8.57290327085E-02
  5.25573570725E-02  2.30000443185E-02  8.12421623082E-04 -1.32913307630E-02
 -1.93695142607E-02 -1.83610275479E-02 -1.20630199102E-02 -2.95334053334E-03
  6.15304599569E-03  1.26117552017E-02  1.46028654936E-02  1.18576168228E-02
  6.20868630728E-03  1.30014096544E-03  0.00000000000E+00  0.00000000000E+00
  0.00000000000E+00  0.00000000000E+00  0.00000000000E+00  0.00000000000E+00