<PP_INFO>
Generated using Vanderbilt code, version   7  3  4                              
Author: Heather Kulik, MIT   Generation date:   18   12 2006
Automatically converted from original format 
    0        The Pseudo was generated with a Non-Relativistic Calculation
  1.70000000000E+00    Local Potential cutoff radius
nl pn  l   occ               Rcut            Rcut US             E pseu
4S  4  0  2.00      0.00000000000      1.71500000000     -1.42739280000
4P  4  1  5.00      0.00000000000      1.70000000000     -0.58032715100
</PP_INFO>


<PP_HEADER>
   0                   Version Number
  Br                   Element
   US                  Ultrasoft pseudopotential
    F                  Nonlinear Core Correction
SLA  PW   PBE  PBE     PBE  Exchange-Correlation functional
    7.00000000000      Z valence
  -26.56682283030      Total energy
 30.0000000  300.00000 Suggested cutoff for wfc and rho
    1                  Max angular momentum component
  823                  Number of points in mesh
    2    4             Number of Wavefunctions, Number of Projectors
 Wavefunctions         nl  l   occ
                       4S  0  2.00
                       4P  1  5.00
</PP_HEADER>


<PP_MESH>
  <PP_R>
  0.00000000000E+00  1.21059454514E-06  2.44188251451E-06  3.69421763331E-06
  4.96795967320E-06  6.26347455560E-06  7.58113445688E-06  8.92131791523E-06
  1.02844099394E-05  1.16708021194E-05  1.30808927389E-05  1.45150868895E-05
  1.59737965876E-05  1.74574408921E-05  1.89664460255E-05  2.05012454956E-05
  2.20622802207E-05  2.36499986558E-05  2.52648569217E-05  2.69073189359E-05
  2.85778565460E-05  3.02769496652E-05  3.20050864099E-05  3.37627632405E-05
  3.55504851035E-05  3.73687655767E-05  3.92181270170E-05  4.10991007102E-05
  4.30122270235E-05  4.49580555612E-05  4.69371453221E-05  4.89500648604E-05
  5.09973924489E-05  5.30797162453E-05  5.51976344609E-05  5.73517555326E-05
  5.95426982977E-05  6.17710921716E-05  6.40375773289E-05  6.63428048867E-05
  6.86874370925E-05  7.10721475136E-05  7.34976212312E-05  7.59645550371E-05
  7.84736576334E-05  8.10256498369E-05  8.36212647855E-05  8.62612481492E-05
  8.89463583440E-05  9.16773667503E-05  9.44550579339E-05  9.72802298717E-05
  1.00153694181E-04  1.03076276352E-04  1.06048815987E-04  1.09072167038E-04
  1.12147198056E-04  1.15274792438E-04  1.18455848681E-04  1.21691280641E-04
  1.24982017794E-04  1.28329005507E-04  1.31733205304E-04  1.35195595145E-04
  1.38717169708E-04  1.42298940674E-04  1.45941937015E-04  1.49647205295E-04
  1.53415809965E-04  1.57248833673E-04  1.61147377571E-04  1.65112561636E-04
  1.69145524989E-04  1.73247426222E-04  1.77419443732E-04  1.81662776059E-04
  1.85978642230E-04  1.90368282109E-04  1.94832956757E-04  1.99373948786E-04
  2.03992562737E-04  2.08690125447E-04  2.13467986436E-04  2.18327518290E-04
  2.23270117060E-04  2.28297202657E-04  2.33410219267E-04  2.38610635760E-04
  2.43899946115E-04  2.49279669849E-04  2.54751352452E-04  2.60316565833E-04
  2.65976908770E-04  2.71734007370E-04  2.77589515535E-04  2.83545115441E-04
  2.89602518015E-04  2.95763463432E-04  3.02029721613E-04  3.08403092732E-04
  3.14885407736E-04  3.21478528868E-04  3.28184350205E-04  3.35004798198E-04
  3.41941832231E-04  3.48997445180E-04  3.56173663985E-04  3.63472550235E-04
  3.70896200759E-04  3.78446748228E-04  3.86126361769E-04  3.93937247585E-04
  4.01881649594E-04  4.09961850067E-04  4.18180170291E-04  4.26538971229E-04
  4.35040654204E-04  4.43687661584E-04  4.52482477488E-04  4.61427628495E-04
  4.70525684374E-04  4.79779258822E-04  4.89191010210E-04  4.98763642353E-04
  5.08499905283E-04  5.18402596040E-04  5.28474559474E-04  5.38718689067E-04
  5.49137927759E-04  5.59735268795E-04  5.70513756586E-04  5.81476487583E-04
  5.92626611167E-04  6.03967330552E-04  6.15501903708E-04  6.27233644295E-04
  6.39165922613E-04  6.51302166577E-04  6.63645862693E-04  6.76200557068E-04
  6.88969856422E-04  7.01957429127E-04  7.15167006261E-04  7.28602382682E-04
  7.42267418112E-04  7.56166038251E-04  7.70302235904E-04  7.84680072128E-04
  7.99303677396E-04  8.14177252787E-04  8.29305071192E-04  8.44691478540E-04
  8.60340895048E-04  8.76257816490E-04  8.92446815491E-04  9.08912542836E-04
  9.25659728810E-04  9.42693184556E-04  9.60017803456E-04  9.77638562537E-04
  9.95560523903E-04  1.01378883619E-03  1.03232873603E-03  1.05118554958E-03
  1.07036469405E-03  1.08987167923E-03  1.10971210909E-03  1.12989168341E-03
  1.15041619939E-03  1.17129155333E-03  1.19252374231E-03  1.21411886592E-03
  1.23608312804E-03  1.25842283856E-03  1.28114441526E-03  1.30425438560E-03
  1.32775938864E-03  1.35166617689E-03  1.37598161833E-03  1.40071269830E-03
  1.42586652157E-03  1.45145031434E-03  1.47747142635E-03  1.50393733294E-03
  1.53085563728E-03  1.55823407246E-03  1.58608050378E-03  1.61440293099E-03
  1.64320949055E-03  1.67250845805E-03  1.70230825051E-03  1.73261742884E-03
  1.76344470026E-03  1.79479892087E-03  1.82668909812E-03  1.85912439345E-03
  1.89211412488E-03  1.92566776973E-03  1.95979496731E-03  1.99450552171E-03
  2.02980940459E-03  2.06571675807E-03  2.10223789766E-03  2.13938331515E-03
  2.17716368172E-03  2.21558985092E-03  2.25467286186E-03  2.29442394233E-03
  2.33485451204E-03  2.37597618591E-03  2.41780077741E-03  2.46034030193E-03
  2.50360698025E-03  2.54761324206E-03  2.59237172949E-03  2.63789530080E-03
  2.68419703403E-03  2.73129023077E-03  2.77918841999E-03  2.82790536190E-03
  2.87745505194E-03  2.92785172478E-03  2.97910985842E-03  3.03124417830E-03
  3.08426966163E-03  3.13820154159E-03  3.19305531178E-03  3.24884673060E-03
  3.30559182587E-03  3.36330689935E-03  3.42200853147E-03  3.48171358606E-03
  3.54243921523E-03  3.60420286428E-03  3.66702227672E-03  3.73091549934E-03
  3.79590088743E-03  3.86199711003E-03  3.92922315532E-03  3.99759833603E-03
  4.06714229502E-03  4.13787501094E-03  4.20981680393E-03  4.28298834146E-03
  4.35741064430E-03  4.43310509255E-03  4.51009343175E-03  4.58839777916E-03
  4.66804063011E-03  4.74904486445E-03  4.83143375312E-03  4.91523096486E-03
  5.00046057299E-03  5.08714706232E-03  5.17531533620E-03  5.26499072368E-03
  5.35619898675E-03  5.44896632779E-03  5.54331939706E-03  5.63928530037E-03
  5.73689160686E-03  5.83616635694E-03  5.93713807032E-03  6.03983575423E-03
  6.14428891172E-03  6.25052755015E-03  6.35858218985E-03  6.46848387281E-03
  6.58026417165E-03  6.69395519871E-03  6.80958961520E-03  6.92720064066E-03
  7.04682206246E-03  7.16848824552E-03  7.29223414219E-03  7.41809530225E-03
  7.54610788320E-03  7.67630866055E-03  7.80873503849E-03  7.94342506054E-03
  8.08041742054E-03  8.21975147375E-03  8.36146724815E-03  8.50560545592E-03
  8.65220750520E-03  8.80131551191E-03  8.95297231189E-03  9.10722147322E-03
  9.26410730869E-03  9.42367488856E-03  9.58597005352E-03  9.75103942782E-03
  9.91893043270E-03  1.00896913000E-02  1.02633710860E-02  1.04400196856E-02
  1.06196878464E-02  1.08024271837E-02  1.09882901949E-02  1.11773302750E-02
  1.13696017313E-02  1.15651597999E-02  1.17640606607E-02  1.19663614542E-02
  1.21721202974E-02  1.23813963008E-02  1.25942495855E-02  1.28107413000E-02
  1.30309336382E-02  1.32548898572E-02  1.34826742951E-02  1.37143523901E-02
  1.39499906988E-02  1.41896569156E-02  1.44334198918E-02  1.46813496559E-02
  1.49335174334E-02  1.51899956670E-02  1.54508580381E-02  1.57161794874E-02
  1.59860362366E-02  1.62605058103E-02  1.65396670582E-02  1.68236001782E-02
  1.71123867385E-02  1.74061097021E-02  1.77048534498E-02  1.80087038049E-02
  1.83177480578E-02  1.86320749909E-02  1.89517749042E-02  1.92769396414E-02
  1.96076626160E-02  1.99440388382E-02  2.02861649425E-02  2.06341392151E-02
  2.09880616223E-02  2.13480338390E-02  2.17141592784E-02  2.20865431213E-02
  2.24652923462E-02  2.28505157605E-02  2.32423240315E-02  2.36408297181E-02
  2.40461473032E-02  2.44583932268E-02  2.48776859190E-02  2.53041458347E-02
  2.57378954875E-02  2.61790594853E-02  2.66277645659E-02  2.70841396336E-02
  2.75483157962E-02  2.80204264025E-02  2.85006070807E-02  2.89889957774E-02
  2.94857327973E-02  2.99909608434E-02  3.05048250577E-02  3.10274730637E-02
  3.15590550079E-02  3.20997236036E-02  3.26496341743E-02  3.32089446988E-02
  3.37778158561E-02  3.43564110719E-02  3.49448965655E-02  3.55434413972E-02
  3.61522175176E-02  3.67713998160E-02  3.74011661718E-02  3.80416975045E-02
  3.86931778263E-02  3.93557942951E-02  4.00297372676E-02  4.07152003547E-02
  4.14123804767E-02  4.21214779198E-02  4.28426963940E-02  4.35762430916E-02
  4.43223287462E-02  4.50811676938E-02  4.58529779342E-02  4.66379811935E-02
  4.74364029879E-02  4.82484726887E-02  4.90744235876E-02  4.99144929645E-02
  5.07689221549E-02  5.16379566199E-02  5.25218460162E-02  5.34208442682E-02
  5.43352096406E-02  5.52652048130E-02  5.62110969550E-02  5.71731578030E-02
  5.81516637386E-02  5.91468958675E-02  6.01591401007E-02  6.11886872363E-02
  6.22358330434E-02  6.33008783467E-02  6.43841291130E-02  6.54858965393E-02
  6.66064971422E-02  6.77462528485E-02  6.89054910879E-02  7.00845448871E-02
  7.12837529656E-02  7.25034598325E-02  7.37440158861E-02  7.50057775141E-02
  7.62891071961E-02  7.75943736081E-02  7.89219517277E-02  8.02722229425E-02
  8.16455751592E-02  8.30424029154E-02  8.44631074927E-02  8.59080970320E-02
  8.73777866508E-02  8.88725985625E-02  9.03929621977E-02  9.19393143273E-02
  9.35120991886E-02  9.51117686120E-02  9.67387821517E-02  9.83936072171E-02
  1.00076719208E-01  1.01788601649E-01  1.03529746331E-01  1.05300653451E-01
  1.07101831758E-01  1.08933798693E-01  1.10797080547E-01  1.12692212604E-01
  1.14619739298E-01  1.16580214371E-01  1.18574201029E-01  1.20602272106E-01
  1.22665010228E-01  1.24763007980E-01  1.26896868075E-01  1.29067203530E-01
  1.31274637841E-01  1.33519805161E-01  1.35803350483E-01  1.38125929825E-01
  1.40488210419E-01  1.42890870904E-01  1.45334601516E-01  1.47820104292E-01
  1.50348093270E-01  1.52919294691E-01  1.55534447212E-01  1.58194302116E-01
  1.60899623527E-01  1.63651188632E-01  1.66449787902E-01  1.69296225322E-01
  1.72191318616E-01  1.75135899490E-01  1.78130813864E-01  1.81176922120E-01
  1.84275099345E-01  1.87426235586E-01  1.90631236103E-01  1.93891021631E-01
  1.97206528644E-01  2.00578709621E-01  2.04008533327E-01  2.07496985081E-01
  2.11045067050E-01  2.14653798529E-01  2.18324216235E-01  2.22057374610E-01
  2.25854346117E-01  2.29716221553E-01  2.33644110360E-01  2.37639140944E-01
  2.41702461001E-01  2.45835237843E-01  2.50038658738E-01  2.54313931246E-01
  2.58662283571E-01  2.63084964911E-01  2.67583245816E-01  2.72158418554E-01
  2.76811797486E-01  2.81544719437E-01  2.86358544082E-01  2.91254654342E-01
  2.96234456774E-01  3.01299381978E-01  3.06450885010E-01  3.11690445797E-01
  3.17019569563E-01  3.22439787262E-01  3.27952656018E-01  3.33559759572E-01
  3.39262708736E-01  3.45063141857E-01  3.50962725287E-01  3.56963153862E-01
  3.63066151389E-01  3.69273471142E-01  3.75586896362E-01  3.82008240776E-01
  3.88539349111E-01  3.95182097627E-01  4.01938394659E-01  4.08810181160E-01
  4.15799431260E-01  4.22908152837E-01  4.30138388088E-01  4.37492214120E-01
  4.44971743545E-01  4.52579125087E-01  4.60316544199E-01  4.68186223693E-01
  4.76190424374E-01  4.84331445695E-01  4.92611626415E-01  5.01033345267E-01
  5.09599021650E-01  5.18311116317E-01  5.27172132083E-01  5.36184614546E-01
  5.45351152820E-01  5.54674380273E-01  5.64156975287E-01  5.73801662029E-01
  5.83611211230E-01  5.93588440985E-01  6.03736217558E-01  6.14057456210E-01
  6.24555122031E-01  6.35232230799E-01  6.46091849841E-01  6.57137098914E-01
  6.68371151105E-01  6.79797233739E-01  6.91418629311E-01  7.03238676420E-01
  7.15260770738E-01  7.27488365981E-01  7.39924974899E-01  7.52574170291E-01
  7.65439586024E-01  7.78524918083E-01  7.91833925633E-01  8.05370432092E-01
  8.19138326237E-01  8.33141563318E-01  8.47384166194E-01  8.61870226488E-01
  8.76603905767E-01  8.91589436730E-01  9.06831124431E-01  9.22333347512E-01
  9.38100559462E-01  9.54137289894E-01  9.70448145853E-01  9.87037813130E-01
  1.00391105762E+00  1.02107272667E+00  1.03852775050E+00  1.05628114361E+00
  1.07433800619E+00  1.09270352564E+00  1.11138297802E+00  1.13038172956E+00
  1.14970523824E+00  1.16935905534E+00  1.18934882702E+00  1.20968029594E+00
  1.23035930294E+00  1.25139178872E+00  1.27278379548E+00  1.29454146874E+00
  1.31667105907E+00  1.33917892385E+00  1.36207152917E+00  1.38535545163E+00
  1.40903738025E+00  1.43312411839E+00  1.45762258570E+00  1.48253982012E+00
  1.50788297989E+00  1.53365934560E+00  1.55987632231E+00  1.58654144165E+00
  1.61366236399E+00  1.64124688065E+00  1.66930291612E+00  1.69783853037E+00
  1.72686192111E+00  1.75638142622E+00  1.78640552606E+00  1.81694284599E+00
  1.84800215879E+00  1.87959238719E+00  1.91172260646E+00  1.94440204699E+00
  1.97764009694E+00  2.01144630497E+00  2.04583038295E+00  2.08080220875E+00
  2.11637182911E+00  2.15254946248E+00  2.18934550201E+00  2.22677051848E+00
  2.26483526338E+00  2.30355067197E+00  2.34292786643E+00  2.38297815908E+00
  2.42371305559E+00  2.46514425830E+00  2.50728366961E+00  2.55014339533E+00
  2.59373574826E+00  2.63807325161E+00  2.68316864271E+00  2.72903487659E+00
  2.77568512972E+00  2.82313280382E+00  2.87139152970E+00  2.92047517114E+00
  2.97039782893E+00  3.02117384488E+00  3.07281780596E+00  3.12534454849E+00
  3.17876916236E+00  3.23310699545E+00  3.28837365797E+00  3.34458502695E+00
  3.40175725083E+00  3.45990675409E+00  3.51905024195E+00  3.57920470520E+00
  3.64038742504E+00  3.70261597809E+00  3.76590824141E+00  3.83028239764E+00
  3.89575694023E+00  3.96235067874E+00  4.03008274428E+00  4.09897259495E+00
  4.16904002148E+00  4.24030515287E+00  4.31278846222E+00  4.38651077259E+00
  4.46149326297E+00  4.53775747438E+00  4.61532531604E+00  4.69421907170E+00
  4.77446140601E+00  4.85607537104E+00  4.93908441290E+00  5.02351237848E+00
  5.10938352230E+00  5.19672251348E+00  5.28555444283E+00  5.37590483003E+00
  5.46779963101E+00  5.56126524536E+00  5.65632852395E+00  5.75301677661E+00
  5.85135778001E+00  5.95137978562E+00  6.05311152783E+00  6.15658223218E+00
  6.26182162383E+00  6.36885993600E+00  6.47772791873E+00  6.58845684769E+00
  6.70107853316E+00  6.81562532916E+00  6.93213014278E+00  7.05062644359E+00
  7.17114827329E+00  7.29373025546E+00  7.41840760554E+00  7.54521614092E+00
  7.67419229124E+00  7.80537310885E+00  7.93879627945E+00  8.07450013295E+00
  8.21252365444E+00  8.35290649540E+00  8.49568898510E+00  8.64091214220E+00
  8.78861768649E+00  8.93884805092E+00  9.09164639377E+00  9.24705661104E+00
  9.40512334908E+00  9.56589201741E+00  9.72940880175E+00  9.89572067732E+00
  1.00648754223E+01  1.02369216316E+01  1.04119087307E+01  1.05898869900E+01
  1.07709075393E+01  1.09550223822E+01  1.11422844115E+01  1.13327474238E+01
  1.15264661354E+01  1.17234961981E+01  1.19238942148E+01  1.21277177558E+01
  1.23350253758E+01  1.25458766303E+01  1.27603320927E+01  1.29784533719E+01
  1.32003031300E+01  1.34259451001E+01  1.36554441047E+01  1.38888660746E+01
  1.41262780672E+01  1.43677482866E+01  1.46133461023E+01  1.48631420699E+01
  1.51172079510E+01  1.53756167337E+01  1.56384426540E+01  1.59057612165E+01
  1.61776492168E+01  1.64541847630E+01  1.67354472984E+01  1.70215176244E+01
  1.73124779233E+01  1.76084117825E+01  1.79094042179E+01  1.82155416990E+01
  1.85269121731E+01  1.88436050909E+01  1.91657114321E+01  1.94933237317E+01
  1.98265361064E+01  2.01654442815E+01  2.05101456190E+01  2.08607391447E+01
  2.12173255774E+01  2.15800073576E+01  2.19488886766E+01  2.23240755069E+01
  2.27056756325E+01  2.30937986797E+01  2.34885561487E+01  2.38900614457E+01
  2.42984299155E+01  2.47137788742E+01  2.51362276438E+01  2.55658975855E+01
  2.60029121352E+01  2.64473968387E+01  2.68994793879E+01  2.73592896574E+01
  2.78269597417E+01  2.83026239934E+01  2.87864190616E+01  2.92784839314E+01
  2.97789599633E+01  3.02879909346E+01  3.08057230798E+01  3.13323051336E+01
  3.18678883727E+01  3.24126266597E+01  3.29666764876E+01  3.35301970240E+01
  3.41033501575E+01  3.46863005440E+01  3.52792156537E+01  3.58822658197E+01
  3.64956242867E+01  3.71194672607E+01  3.77539739597E+01  3.83993266652E+01
  3.90557107745E+01  3.97233148541E+01  4.04023306937E+01  4.10929533615E+01
  4.17953812599E+01  4.25098161829E+01  4.32364633739E+01  4.39755315845E+01
  4.47272331347E+01  4.54917839738E+01  4.62694037424E+01  4.70603158358E+01
  4.78647474676E+01  4.86829297355E+01  4.95150976873E+01  5.03614903889E+01
  5.12223509926E+01  5.20979268068E+01  5.29884693675E+01  5.38942345105E+01
  5.48154824446E+01  5.57524778263E+01  5.67054898365E+01  5.76747922568E+01
  5.86606635494E+01  5.96633869357E+01  6.06832504789E+01  6.17205471661E+01
  6.27755749925E+01  6.38486370471E+01  6.49400416000E+01  6.60501021905E+01
  6.71791377177E+01  6.83274725314E+01  6.94954365262E+01  7.06833652354E+01
  7.18915999281E+01  7.31204877065E+01  7.43703816065E+01  7.56416406984E+01
  7.69346301902E+01  7.82497215329E+01  7.95872925267E+01
  </PP_R>
  <PP_RAB>
  1.20036425020E-06  1.22088280181E-06  1.24175208943E-06  1.26297810839E-06
  1.28456695653E-06  1.30652483589E-06  1.32885805456E-06  1.35157302843E-06
  1.37467628307E-06  1.39817445562E-06  1.42207429662E-06  1.44638267206E-06
  1.47110656525E-06  1.49625307888E-06  1.52182943707E-06  1.54784298741E-06
  1.57430120309E-06  1.60121168504E-06  1.62858216413E-06  1.65642050335E-06
  1.68473470013E-06  1.71353288859E-06  1.74282334190E-06  1.77261447462E-06
  1.80291484518E-06  1.83373315828E-06  1.86507826744E-06  1.89695917749E-06
  1.92938504721E-06  1.96236519192E-06  1.99590908617E-06  2.03002636648E-06
  2.06472683408E-06  2.10002045775E-06  2.13591737666E-06  2.17242790330E-06
  2.20956252643E-06  2.24733191413E-06  2.28574691679E-06  2.32481857032E-06
  2.36455809923E-06  2.40497691992E-06  2.44608664395E-06  2.48789908134E-06
  2.53042624399E-06  2.57368034913E-06  2.61767382284E-06  2.66241930358E-06
  2.70792964586E-06  2.75421792394E-06  2.80129743552E-06  2.84918170565E-06
  2.89788449056E-06  2.94741978159E-06  2.99780180930E-06  3.04904504746E-06
  3.10116421726E-06  3.15417429152E-06  3.20809049903E-06  3.26292832885E-06
  3.31870353485E-06  3.37543214015E-06  3.43313044179E-06  3.49181501537E-06
  3.55150271983E-06  3.61221070230E-06  3.67395640301E-06  3.73675756029E-06
  3.80063221571E-06  3.86559871923E-06  3.93167573445E-06  3.99888224403E-06
  4.06723755510E-06  4.13676130481E-06  4.20747346600E-06  4.27939435289E-06
  4.35254462697E-06  4.42694530290E-06  4.50261775455E-06  4.57958372115E-06
  4.65786531353E-06  4.73748502049E-06  4.81846571522E-06  4.90083066190E-06
  4.98460352240E-06  5.06980836304E-06  5.15646966151E-06  5.24461231393E-06
  5.33426164199E-06  5.42544340019E-06  5.51818378329E-06  5.61250943382E-06
  5.70844744969E-06  5.80602539206E-06  5.90527129317E-06  6.00621366445E-06
  6.10888150469E-06  6.21330430837E-06  6.31951207415E-06  6.42753531346E-06
  6.53740505929E-06  6.64915287509E-06  6.76281086384E-06  6.87841167729E-06
  6.99598852531E-06  7.11557518545E-06  7.23720601265E-06  7.36091594910E-06
  7.48674053425E-06  7.61471591509E-06  7.74487885646E-06  7.87726675165E-06
  8.01191763315E-06  8.14887018355E-06  8.28816374666E-06  8.42983833884E-06
  8.57393466044E-06  8.72049410756E-06  8.86955878389E-06  9.02117151282E-06
  9.17537584977E-06  9.33221609464E-06  9.49173730461E-06  9.65398530704E-06
  9.81900671263E-06  9.98684892884E-06  1.01575601735E-05  1.03311894886E-05
  1.05077867546E-05  1.06874027044E-05  1.08700889381E-05  1.10558979381E-05
  1.12448830835E-05  1.14370986663E-05  1.16325999063E-05  1.18314429671E-05
  1.20336849725E-05  1.22393840227E-05  1.24485992111E-05  1.26613906412E-05
  1.28778194438E-05  1.30979477947E-05  1.33218389326E-05  1.35495571770E-05
  1.37811679470E-05  1.40167377799E-05  1.42563343503E-05  1.45000264897E-05
  1.47478842061E-05  1.49999787042E-05  1.52563824060E-05  1.55171689712E-05
  1.57824133188E-05  1.60521916483E-05  1.63265814619E-05  1.66056615864E-05
  1.68895121961E-05  1.71782148359E-05  1.74718524444E-05  1.77705093780E-05
  1.80742714350E-05  1.83832258805E-05  1.86974614710E-05  1.90170684805E-05
  1.93421387256E-05  1.96727655930E-05  2.00090440652E-05  2.03510707486E-05
  2.06989439009E-05  2.10527634591E-05  2.14126310689E-05  2.17786501133E-05
  2.21509257424E-05  2.25295649038E-05  2.29146763733E-05  2.33063707859E-05
  2.37047606678E-05  2.41099604687E-05  2.45220865947E-05  2.49412574417E-05
  2.53675934293E-05  2.58012170356E-05  2.62422528323E-05  2.66908275204E-05
  2.71470699668E-05  2.76111112411E-05  2.80830846533E-05  2.85631257923E-05
  2.90513725647E-05  2.95479652342E-05  3.00530464623E-05  3.05667613491E-05
  3.10892574750E-05  3.16206849430E-05  3.21611964218E-05  3.27109471900E-05
  3.32700951804E-05  3.38388010253E-05  3.44172281030E-05  3.50055425842E-05
  3.56039134805E-05  3.62125126921E-05  3.68315150579E-05  3.74610984053E-05
  3.81014436013E-05  3.87527346048E-05  3.94151585190E-05  4.00889056456E-05
  4.07741695390E-05  4.14711470622E-05  4.21800384436E-05  4.29010473337E-05
  4.36343808646E-05  4.43802497088E-05  4.51388681399E-05  4.59104540943E-05
  4.66952292338E-05  4.74934190090E-05  4.83052527245E-05  4.91309636044E-05
  4.99707888594E-05  5.08249697550E-05  5.16937516810E-05  5.25773842215E-05
  5.34761212270E-05  5.43902208874E-05  5.53199458057E-05  5.62655630740E-05
  5.72273443498E-05  5.82055659342E-05  5.92005088513E-05  6.02124589291E-05
  6.12417068812E-05  6.22885483906E-05  6.33532841946E-05  6.44362201712E-05
  6.55376674269E-05  6.66579423863E-05  6.77973668827E-05  6.89562682506E-05
  7.01349794201E-05  7.13338390119E-05  7.25531914354E-05  7.37933869867E-05
  7.50547819502E-05  7.63377387002E-05  7.76426258053E-05  7.89698181343E-05
  8.03196969640E-05  8.16926500883E-05  8.30890719302E-05  8.45093636546E-05
  8.59539332839E-05  8.74231958149E-05  8.89175733384E-05  9.04374951600E-05
  9.19833979240E-05  9.35557257382E-05  9.51549303021E-05  9.67814710361E-05
  9.84358152139E-05  1.00118438097E-04  1.01829823069E-04  1.03570461780E-04
  1.05340854279E-04  1.07141509168E-04  1.08972943739E-04  1.10835684128E-04
  1.12730265465E-04  1.14657232025E-04  1.16617137389E-04  1.18610544600E-04
  1.20638026326E-04  1.22700165022E-04  1.24797553101E-04  1.26930793102E-04
  1.29100497864E-04  1.31307290700E-04  1.33551805581E-04  1.35834687310E-04
  1.38156591717E-04  1.40518185839E-04  1.42920148117E-04  1.45363168588E-04
  1.47847949084E-04  1.50375203435E-04  1.52945657672E-04  1.55560050237E-04
  1.58219132194E-04  1.60923667446E-04  1.63674432954E-04  1.66472218959E-04
  1.69317829211E-04  1.72212081199E-04  1.75155806386E-04  1.78149850446E-04
  1.81195073511E-04  1.84292350415E-04  1.87442570944E-04  1.90646640097E-04
  1.93905478340E-04  1.97220021875E-04  2.00591222907E-04  2.04020049914E-04
  2.07507487934E-04  2.11054538840E-04  2.14662221631E-04  2.18331572725E-04
  2.22063646254E-04  2.25859514371E-04  2.29720267557E-04  2.33647014930E-04
  2.37640884569E-04  2.41703023836E-04  2.45834599705E-04  2.50036799097E-04
  2.54310829222E-04  2.58657917928E-04  2.63079314049E-04  2.67576287765E-04
  2.72150130972E-04  2.76802157644E-04  2.81533704220E-04  2.86346129982E-04
  2.91240817445E-04  2.96219172760E-04  3.01282626111E-04  3.06432632130E-04
  3.11670670315E-04  3.16998245452E-04  3.22416888051E-04  3.27928154783E-04
  3.33533628928E-04  3.39234920830E-04  3.45033668361E-04  3.50931537388E-04
  3.56930222255E-04  3.63031446267E-04  3.69236962190E-04  3.75548552746E-04
  3.81968031135E-04  3.88497241547E-04  3.95138059700E-04  4.01892393370E-04
  4.08762182948E-04  4.15749401992E-04  4.22856057793E-04  4.30084191958E-04
  4.37435880988E-04  4.44913236882E-04  4.52518407739E-04  4.60253578379E-04
  4.68120970965E-04  4.76122845648E-04  4.84261501211E-04  4.92539275732E-04
  5.00958547256E-04  5.09521734477E-04  5.18231297432E-04  5.27089738211E-04
  5.36099601672E-04  5.45263476175E-04  5.54583994323E-04  5.64063833721E-04
  5.73705717744E-04  5.83512416317E-04  5.93486746716E-04  6.03631574373E-04
  6.13949813700E-04  6.24444428929E-04  6.35118434958E-04  6.45974898224E-04
  6.57016937578E-04  6.68247725184E-04  6.79670487431E-04  6.91288505856E-04
  7.03105118092E-04  7.15123718823E-04  7.27347760759E-04  7.39780755633E-04
  7.52426275203E-04  7.65287952281E-04  7.78369481779E-04  7.91674621767E-04
  8.05207194554E-04  8.18971087787E-04  8.32970255566E-04  8.47208719580E-04
  8.61690570265E-04  8.76419967977E-04  8.91401144186E-04  9.06638402694E-04
  9.22136120871E-04  9.37898750912E-04  9.53930821115E-04  9.70236937183E-04
  9.86821783548E-04  1.00369012472E-03  1.02084680663E-03  1.03829675809E-03
  1.05604499210E-03  1.07409660741E-03  1.09245678989E-03  1.11113081407E-03
  1.13012404463E-03  1.14944193795E-03  1.16909004371E-03  1.18907400641E-03
  1.20939956706E-03  1.23007256480E-03  1.25109893859E-03  1.27248472890E-03
  1.29423607944E-03  1.31635923896E-03  1.33886056302E-03  1.36174651582E-03
  1.38502367203E-03  1.40869871875E-03  1.43277845735E-03  1.45726980547E-03
  1.48217979901E-03  1.50751559412E-03  1.53328446930E-03  1.55949382743E-03
  1.58615119795E-03  1.61326423903E-03  1.64084073970E-03  1.66888862217E-03
  1.69741594404E-03  1.72643090067E-03  1.75594182748E-03  1.78595720241E-03
  1.81648564828E-03  1.84753593532E-03  1.87911698369E-03  1.91123786601E-03
  1.94390780998E-03  1.97713620104E-03  2.01093258508E-03  2.04530667114E-03
  2.08026833422E-03  2.11582761815E-03  2.15199473840E-03  2.18878008510E-03
  2.22619422597E-03  2.26424790935E-03  2.30295206735E-03  2.34231781891E-03
  2.38235647305E-03  2.42307953211E-03  2.46449869503E-03  2.50662586073E-03
  2.54947313154E-03  2.59305281664E-03  2.63737743564E-03  2.68245972215E-03
  2.72831262742E-03  2.77494932411E-03  2.82238321005E-03  2.87062791207E-03
  2.91969728994E-03  2.96960544035E-03  3.02036670093E-03  3.07199565441E-03
  3.12450713281E-03  3.17791622164E-03  3.23223826430E-03  3.28748886648E-03
  3.34368390059E-03  3.40083951038E-03  3.45897211555E-03  3.51809841647E-03
  3.57823539900E-03  3.63940033931E-03  3.70161080891E-03  3.76488467967E-03
  3.82924012895E-03  3.89469564481E-03  3.96127003137E-03  4.02898241416E-03
  4.09785224562E-03  4.16789931074E-03  4.23914373268E-03  4.31160597859E-03
  4.38530686546E-03  4.46026756613E-03  4.53650961536E-03  4.61405491602E-03
  4.69292574537E-03  4.77314476148E-03  4.85473500971E-03  4.93771992937E-03
  5.02212336041E-03  5.10796955031E-03  5.19528316103E-03  5.28408927606E-03
  5.37441340768E-03  5.46628150428E-03  5.55971995778E-03  5.65475561124E-03
  5.75141576656E-03  5.84972819234E-03  5.94972113182E-03  6.05142331106E-03
  6.15486394712E-03  6.26007275648E-03  6.36707996361E-03  6.47591630960E-03
  6.58661306104E-03  6.69920201895E-03  6.81371552797E-03  6.93018648561E-03
  7.04864835171E-03  7.16913515810E-03  7.29168151828E-03  7.41632263747E-03
  7.54309432264E-03  7.67203299284E-03  7.80317568966E-03  7.93656008785E-03
  8.07222450618E-03  8.21020791841E-03  8.35054996450E-03  8.49329096200E-03
  8.63847191764E-03  8.78613453911E-03  8.93632124701E-03  9.08907518707E-03
  9.24444024256E-03  9.40246104684E-03  9.56318299623E-03  9.72665226304E-03
  9.89291580883E-03  1.00620213979E-02  1.02340176110E-02  1.04089538593E-02
  1.05868803987E-02  1.07678483439E-02  1.09519096836E-02  1.11391172950E-02
  1.13295249592E-02  1.15231873768E-02  1.17201601831E-02  1.19204999646E-02
  1.21242642751E-02  1.23315116521E-02  1.25423016337E-02  1.27566947760E-02
  1.29747526697E-02  1.31965379589E-02  1.34221143580E-02  1.36515466709E-02
  1.38849008089E-02  1.41222438103E-02  1.43636438591E-02  1.46091703047E-02
  1.48588936823E-02  1.51128857326E-02  1.53712194224E-02  1.56339689662E-02
  1.59012098467E-02  1.61730188370E-02  1.64494740228E-02  1.67306548241E-02
  1.70166420188E-02  1.73075177654E-02  1.76033656270E-02  1.79042705949E-02
  1.82103191133E-02  1.85215991040E-02  1.88381999917E-02  1.91602127297E-02
  1.94877298260E-02  1.98208453701E-02  2.01596550594E-02  2.05042562276E-02
  2.08547478718E-02  2.12112306815E-02  2.15738070673E-02  2.19425811904E-02
  2.23176589925E-02  2.26991482261E-02  2.30871584858E-02  2.34818012394E-02
  2.38831898601E-02  2.42914396590E-02  2.47066679185E-02  2.51289939256E-02
  2.55585390064E-02  2.59954265609E-02  2.64397820984E-02  2.68917332736E-02
  2.73514099235E-02  2.78189441041E-02  2.82944701291E-02  2.87781246078E-02
  2.92700464848E-02  2.97703770798E-02  3.02792601280E-02  3.07968418218E-02
  3.13232708522E-02  3.18586984523E-02  3.24032784399E-02  3.29571672624E-02
  3.35205240412E-02  3.40935106180E-02  3.46762916007E-02  3.52690344109E-02
  3.58719093322E-02  3.64850895589E-02  3.71087512458E-02  3.77430735589E-02
  3.83882387266E-02  3.90444320925E-02  3.97118421682E-02  4.03906606877E-02
  4.10810826624E-02  4.17833064372E-02  4.24975337474E-02  4.32239697767E-02
  4.39628232160E-02  4.47143063238E-02  4.54786349865E-02  4.62560287810E-02
  4.70467110375E-02  4.78509089036E-02  4.86688534100E-02  4.95007795361E-02
  5.03469262783E-02  5.12075367182E-02  5.20828580925E-02  5.29731418640E-02
  5.38786437941E-02  5.47996240160E-02  5.57363471095E-02  5.66890821769E-02
  5.76581029207E-02  5.86436877217E-02  5.96461197194E-02  6.06656868930E-02
  6.17026821446E-02  6.27574033828E-02  6.38301536085E-02  6.49212410022E-02
  6.60309790122E-02  6.71596864447E-02  6.83076875555E-02  6.94753121431E-02
  7.06628956435E-02  7.18707792264E-02  7.30993098935E-02  7.43488405777E-02
  7.56197302451E-02  7.69123439978E-02  7.82270531785E-02  7.95642354778E-02
  8.09242750424E-02  8.23075625852E-02  8.37144954981E-02  8.51454779655E-02
  8.66009210812E-02  8.80812429656E-02  8.95868688868E-02  9.11182313817E-02
  9.26757703814E-02  9.42599333365E-02  9.58711753464E-02  9.75099592898E-02