<PP_INFO>
Generated using Andrea Dal Corso code (rrkj3)                                   
Author: Andrea Dal Corso   Generation date: unknown                             
Info:      Co                                                                   
    1        The Pseudo was generated with a Scalar-Relativistic Calculation
  1.70000000000E+00    Local Potential cutoff radius
nl pn  l   occ               Rcut            Rcut US             E pseu
4S  1  0  1.00      2.20000000000      2.50000000000      0.00000000000
4S  1  0  0.00      2.20000000000      2.50000000000      0.20000000000
4P  2  1  0.00      2.40000000000      2.60000000000      0.00000000000
4P  2  1  0.00      2.40000000000      2.60000000000      0.10000000000
3D  3  2  8.00      1.50000000000      2.10000000000      0.00000000000
3D  3  2  0.00      1.50000000000      2.10000000000     -0.43000000000
</PP_INFO>


<PP_HEADER>
   0                   Version Number
  Co                   Element
   US                  Ultrasoft pseudopotential
    T                  Nonlinear Core Correction
 SLA  PZ   NOGX NOGC   PZ   Exchange-Correlation functional
    9.00000000000      Z valence
  -56.75039102700      Total energy
  0.0000000  0.0000000 Suggested cutoff for wfc and rho
    2                  Max angular momentum component
  961                  Number of points in mesh
    2    6             Number of Wavefunctions, Number of Projectors
 Wavefunctions         nl  l   occ
                       4S  0  1.00
                       3D  2  8.00
</PP_HEADER>


<PP_MESH>
  <PP_R>
  3.37734061316E-05  3.42838258008E-05  3.48019594754E-05  3.53279237377E-05
  3.58618369319E-05  3.64038191907E-05  3.69539924624E-05  3.75124805383E-05
  3.80794090805E-05  3.86549056505E-05  3.92390997373E-05  3.98321227871E-05
  4.04341082326E-05  4.10451915230E-05  4.16655101546E-05  4.22952037018E-05
  4.29344138483E-05  4.35832844190E-05  4.42419614126E-05  4.49105930342E-05
  4.55893297286E-05  4.62783242146E-05  4.69777315188E-05  4.76877090107E-05
  4.84084164384E-05  4.91400159640E-05  4.98826722004E-05  5.06365522486E-05
  5.14018257347E-05  5.21786648484E-05  5.29672443818E-05  5.37677417686E-05
  5.45803371242E-05  5.54052132859E-05  5.62425558544E-05  5.70925532351E-05
  5.79553966813E-05  5.88312803361E-05  5.97204012773E-05  6.06229595607E-05
  6.15391582657E-05  6.24692035410E-05  6.34133046506E-05  6.43716740213E-05
  6.53445272902E-05  6.63320833534E-05  6.73345644152E-05  6.83521960381E-05
  6.93852071934E-05  7.04338303131E-05  7.14983013418E-05  7.25788597899E-05
  7.36757487876E-05  7.47892151396E-05  7.59195093806E-05  7.70668858315E-05
  7.82316026568E-05  7.94139219227E-05  8.06141096561E-05  8.18324359043E-05
  8.30691747958E-05  8.43246046020E-05  8.55990078001E-05  8.68926711360E-05
  8.82058856895E-05  8.95389469394E-05  9.08921548301E-05  9.22658138392E-05
  9.36602330455E-05  9.50757261995E-05  9.65126117929E-05  9.79712131312E-05
  9.94518584057E-05  1.00954880768E-04  1.02480618404E-04  1.04029414612E-04
  1.05601617877E-04  1.07197581952E-04  1.08817665934E-04  1.10462234351E-04
  1.12131657236E-04  1.13826310217E-04  1.15546574599E-04  1.17292837447E-04
  1.19065491678E-04  1.20864936147E-04  1.22691575737E-04  1.24545821449E-04
  1.26428090496E-04  1.28338806397E-04  1.30278399071E-04  1.32247304934E-04
  1.34245966999E-04  1.36274834972E-04  1.38334365359E-04  1.40425021561E-04
  1.42547273986E-04  1.44701600148E-04  1.46888484781E-04  1.49108419943E-04
  1.51361905128E-04  1.53649447381E-04  1.55971561407E-04  1.58328769693E-04
  1.60721602620E-04  1.63150598585E-04  1.65616304124E-04  1.68119274030E-04
  1.70660071481E-04  1.73239268169E-04  1.75857444423E-04  1.78515189343E-04
  1.81213100935E-04  1.83951786238E-04  1.86731861470E-04  1.89553952158E-04
  1.92418693285E-04  1.95326729430E-04  1.98278714913E-04  2.01275313944E-04
  2.04317200769E-04  2.07405059826E-04  2.10539585897E-04  2.13721484263E-04
  2.16951470864E-04  2.20230272462E-04  2.23558626800E-04  2.26937282772E-04
  2.30367000590E-04  2.33848551956E-04  2.37382720232E-04  2.40970300621E-04
  2.44612100345E-04  2.48308938823E-04  2.52061647860E-04  2.55871071832E-04
  2.59738067874E-04  2.63663506076E-04  2.67648269681E-04  2.71693255275E-04
  2.75799372997E-04  2.79967546742E-04  2.84198714366E-04  2.88493827900E-04
  2.92853853763E-04  2.97279772978E-04  3.01772581396E-04  3.06333289917E-04
  3.10962924722E-04  3.15662527496E-04  3.20433155671E-04  3.25275882658E-04
  3.30191798090E-04  3.35182008070E-04  3.40247635416E-04  3.45389819916E-04
  3.50609718582E-04  3.55908505914E-04  3.61287374161E-04  3.66747533591E-04
  3.72290212764E-04  3.77916658806E-04  3.83628137689E-04  3.89425934523E-04
  3.95311353834E-04  4.01285719868E-04  4.07350376882E-04  4.13506689449E-04
  4.19756042765E-04  4.26099842963E-04  4.32539517422E-04  4.39076515098E-04
  4.45712306842E-04  4.52448385735E-04  4.59286267424E-04  4.66227490461E-04
  4.73273616649E-04  4.80426231399E-04  4.87686944077E-04  4.95057388375E-04
  5.02539222674E-04  5.10134130418E-04  5.17843820494E-04  5.25670027614E-04
  5.33614512708E-04  5.41679063318E-04  5.49865494003E-04  5.58175646744E-04
  5.66611391360E-04  5.75174625930E-04  5.83867277217E-04  5.92691301104E-04
  6.01648683035E-04  6.10741438458E-04  6.19971613281E-04  6.29341284332E-04
  6.38852559828E-04  6.48507579844E-04  6.58308516802E-04  6.68257575954E-04
  6.78356995879E-04  6.88609048990E-04  6.99016042043E-04  7.09580316653E-04
  7.20304249829E-04  7.31190254500E-04  7.42240780062E-04  7.53458312932E-04
  7.64845377100E-04  7.76404534706E-04  7.88138386607E-04  8.00049572969E-04
  8.12140773862E-04  8.24414709854E-04  8.36874142634E-04  8.49521875627E-04
  8.62360754626E-04  8.75393668433E-04  8.88623549508E-04  9.02053374631E-04
  9.15686165568E-04  9.29524989756E-04  9.43572960988E-04  9.57833240117E-04
  9.72309035766E-04  9.87003605050E-04  1.00192025431E-03  1.01706233985E-03
  1.03243326871E-03  1.04803649941E-03  1.06387554275E-03  1.07995396257E-03
  1.09627537659E-03  1.11284345719E-03  1.12966193227E-03  1.14673458604E-03
  1.16406525994E-03  1.18165785343E-03  1.19951632492E-03  1.21764469265E-03
  1.23604703557E-03  1.25472749428E-03  1.27369027198E-03  1.29293963536E-03
  1.31247991561E-03  1.33231550939E-03  1.35245087977E-03  1.37289055730E-03
  1.39363914101E-03  1.41470129940E-03  1.43608177155E-03  1.45778536815E-03
  1.47981697262E-03  1.50218154214E-03  1.52488410885E-03  1.54792978092E-03
  1.57132374372E-03  1.59507126099E-03  1.61917767603E-03  1.64364841287E-03
  1.66848897754E-03  1.69370495927E-03  1.71930203176E-03  1.74528595446E-03
  1.77166257386E-03  1.79843782482E-03  1.82561773187E-03  1.85320841061E-03
  1.88121606907E-03  1.90964700908E-03  1.93850762772E-03  1.96780441876E-03
  1.99754397409E-03  2.02773298524E-03  2.05837824487E-03  2.08948664829E-03
  2.12106519502E-03  2.15312099036E-03  2.18566124702E-03  2.21869328667E-03
  2.25222454167E-03  2.28626255670E-03  2.32081499045E-03  2.35588961736E-03
  2.39149432938E-03  2.42763713770E-03  2.46432617463E-03  2.50156969534E-03
  2.53937607979E-03  2.57775383457E-03  2.61671159483E-03  2.65625812624E-03
  2.69640232694E-03  2.73715322954E-03  2.77852000316E-03  2.82051195550E-03
  2.86313853494E-03  2.90640933262E-03  2.95033408466E-03  2.99492267432E-03
  3.04018513422E-03  3.08613164860E-03  3.13277255561E-03  3.18011834967E-03
  3.22817968378E-03  3.27696737193E-03  3.32649239156E-03  3.37676588602E-03
  3.42779916705E-03  3.47960371735E-03  3.53219119317E-03  3.58557342691E-03
  3.63976242979E-03  3.69477039458E-03  3.75060969829E-03  3.80729290501E-03
  3.86483276869E-03  3.92324223606E-03  3.98253444947E-03  4.04272274994E-03
  4.10382068009E-03  4.16584198720E-03  4.22880062633E-03  4.29271076344E-03
  4.35758677858E-03  4.42344326914E-03  4.49029505309E-03  4.55815717237E-03
  4.62704489624E-03  4.69697372474E-03  4.76795939214E-03  4.84001787052E-03
  4.91316537334E-03  4.98741835909E-03  5.06279353502E-03  5.13930786085E-03
  5.21697855263E-03  5.29582308660E-03  5.37585920310E-03  5.45710491060E-03
  5.53957848973E-03  5.62329849739E-03  5.70828377093E-03  5.79455343241E-03
  5.88212689285E-03  5.97102385666E-03  6.06126432603E-03  6.15286860544E-03
  6.24585730624E-03  6.34025135129E-03  6.43607197965E-03  6.53334075135E-03
  6.63207955228E-03  6.73231059909E-03  6.83405644418E-03  6.93733998081E-03
  7.04218444820E-03  7.14861343681E-03  7.25665089359E-03  7.36632112744E-03
  7.47764881462E-03  7.59065900433E-03  7.70537712433E-03  7.82182898670E-03
  7.94004079359E-03  8.06003914316E-03  8.18185103553E-03  8.30550387891E-03
  8.43102549570E-03  8.55844412879E-03  8.68778844792E-03  8.81908755610E-03
  8.95237099619E-03  9.08766875752E-03  9.22501128265E-03  9.36442947425E-03
  9.50595470198E-03  9.64961880963E-03  9.79545412222E-03  9.94349345331E-03
  1.00937701124E-02  1.02463179123E-02  1.04011711770E-02  1.05583647491E-02
  1.07179339977E-02  1.08799148268E-02  1.10443436826E-02  1.12112575623E-02
  1.13806940223E-02  1.15526911864E-02  1.17272877548E-02  1.19045230124E-02
  1.20844368379E-02  1.22670697127E-02  1.24524627299E-02  1.26406576037E-02
  1.28316966789E-02  1.30256229399E-02  1.32224800211E-02  1.34223122160E-02
  1.36251644878E-02  1.38310824791E-02  1.40401125223E-02  1.42523016501E-02
  1.44676976059E-02  1.46863488546E-02  1.49083045938E-02  1.51336147645E-02
  1.53623300623E-02  1.55945019492E-02  1.58301826648E-02  1.60694252383E-02
  1.63122835002E-02  1.65588120948E-02  1.68090664919E-02  1.70631030000E-02
  1.73209787781E-02  1.75827518496E-02  1.78484811145E-02  1.81182263628E-02
  1.83920482886E-02  1.86700085028E-02  1.89521695476E-02  1.92385949106E-02
  1.95293490386E-02  1.98244973526E-02  2.01241062620E-02  2.04282431803E-02
  2.07369765395E-02  2.10503758058E-02  2.13685114956E-02  2.16914551905E-02
  2.20192795545E-02  2.23520583491E-02  2.26898664513E-02  2.30327798691E-02
  2.33808757595E-02  2.37342324456E-02  2.40929294342E-02  2.44570474335E-02
  2.48266683717E-02  2.52018754150E-02  2.55827529866E-02  2.59693867855E-02
  2.63618638060E-02  2.67602723571E-02  2.71647020824E-02  2.75752439802E-02
  2.79919904243E-02  2.84150351843E-02  2.88444734471E-02  2.92804018381E-02
  2.97229184431E-02  3.01721228301E-02  3.06281160720E-02  3.10910007692E-02
  3.15608810728E-02  3.20378627078E-02  3.25220529971E-02  3.30135608854E-02
  3.35124969643E-02  3.40189734964E-02  3.45331044410E-02  3.50550054798E-02
  3.55847940427E-02  3.61225893344E-02  3.66685123611E-02  3.72226859578E-02
  3.77852348158E-02  3.83562855111E-02  3.89359665324E-02  3.95244083105E-02
  4.01217432472E-02  4.07281057454E-02  4.13436322392E-02  4.19684612247E-02
  4.26027332910E-02  4.32465911520E-02  4.39001796785E-02  4.45636459307E-02
  4.52371391911E-02  4.59208109987E-02  4.66148151826E-02  4.73193078965E-02
  4.80344476543E-02  4.87603953655E-02  4.94973143713E-02  5.02453704817E-02
  5.10047320124E-02  5.17755698231E-02  5.25580573553E-02  5.33523706722E-02
  5.41586884976E-02  5.49771922563E-02  5.58080661153E-02  5.66514970246E-02
  5.75076747597E-02  5.83767919642E-02  5.92590441932E-02  6.01546299572E-02
  6.10637507667E-02  6.19866111777E-02  6.29234188377E-02  6.38743845325E-02
  6.48397222332E-02  6.58196491450E-02  6.68143857555E-02  6.78241558847E-02
  6.88491867350E-02  6.98897089429E-02  7.09459566301E-02  7.20181674569E-02
  7.31065826752E-02  7.42114471830E-02  7.53330095795E-02  7.64715222210E-02
  7.76272412776E-02  7.88004267909E-02  7.99913427328E-02  8.12002570642E-02
  8.24274417960E-02  8.36731730500E-02  8.49377311209E-02  8.62214005396E-02
  8.75244701373E-02  8.88472331099E-02  9.01899870848E-02  9.15530341873E-02
  9.29366811088E-02  9.43412391755E-02  9.57670244191E-02  9.72143576472E-02
  9.86835645159E-02  1.00174975603E-01  1.01688926482E-01  1.03225757799E-01
  1.04785815346E-01  1.06369450144E-01  1.07977018518E-01  1.09608882176E-01
  1.11265408294E-01  1.12946969599E-01  1.14653944449E-01  1.16386716920E-01
  1.18145676893E-01  1.19931220142E-01  1.21743748422E-01  1.23583669558E-01
  1.25451397542E-01  1.27347352619E-01  1.29271961387E-01  1.31225656893E-01
  1.33208878725E-01  1.35222073116E-01  1.37265693045E-01  1.39340198333E-01
  1.41446055754E-01  1.43583739135E-01  1.45753729462E-01  1.47956514993E-01
  1.50192591365E-01  1.52462461703E-01  1.54766636738E-01  1.57105634919E-01
  1.59479982531E-01  1.61890213812E-01  1.64336871074E-01  1.66820504825E-01
  1.69341673894E-01  1.71900945554E-01  1.74498895652E-01  1.77136108737E-01
  1.79813178194E-01  1.82530706375E-01  1.85289304735E-01  1.88089593970E-01
  1.90932204157E-01  1.93817774895E-01  1.96746955451E-01  1.99720404902E-01
  2.02738792286E-01  2.05802796754E-01  2.08913107720E-01  2.12070425016E-01
  2.15275459052E-01  2.18528930975E-01  2.21831572829E-01  2.25184127723E-01
  2.28587349996E-01  2.32042005387E-01  2.35548871207E-01  2.39108736518E-01
  2.42722402303E-01  2.46390681653E-01  2.50114399946E-01  2.53894395033E-01
  2.57731517431E-01  2.61626630507E-01  2.65580610680E-01  2.69594347609E-01
  2.73668744405E-01  2.77804717822E-01  2.82003198473E-01  2.86265131034E-01
  2.90591474456E-01  2.94983202186E-01  2.99441302382E-01  3.03966778133E-01
  3.08560647692E-01  3.13223944699E-01  3.17957718414E-01  3.22763033957E-01
  3.27640972545E-01  3.32592631734E-01  3.37619125668E-01  3.42721585330E-01
  3.47901158794E-01  3.53159011487E-01  3.58496326447E-01  3.63914304593E-01
  3.69414164993E-01  3.74997145139E-01  3.80664501224E-01  3.86417508428E-01
  3.92257461201E-01  3.98185673558E-01  4.04203479372E-01  4.10312232674E-01
  4.16513307959E-01  4.22808100495E-01  4.29198026638E-01  4.35684524147E-01
  4.42269052513E-01  4.48953093281E-01  4.55738150389E-01  4.62625750504E-01
  4.69617443364E-01  4.76714802130E-01  4.83919423738E-01  4.91232929258E-01
  4.98656964259E-01  5.06193199181E-01  5.13843329709E-01  5.21609077153E-01
  5.29492188840E-01  5.37494438503E-01  5.45617626683E-01  5.53863581131E-01
  5.62234157221E-01  5.70731238368E-01  5.79356736451E-01  5.88112592245E-01
  5.97000775853E-01  6.06023287154E-01  6.15182156251E-01  6.24479443929E-01
  6.33917242117E-01  6.43497674358E-01  6.53222896290E-01  6.63095096130E-01
  6.73116495165E-01  6.83289348250E-01  6.93615944321E-01  7.04098606906E-01
  7.14739694648E-01  7.25541601837E-01  7.36506758947E-01  7.47637633185E-01
  7.58936729044E-01  7.70406588869E-01  7.82049793427E-01  7.93868962488E-01
  8.05866755415E-01  8.18045871761E-01  8.30409051879E-01  8.42959077538E-01
  8.55698772545E-01  8.68631003386E-01  8.81758679868E-01  8.95084755772E-01
  9.08612229523E-01  9.22344144858E-01  9.36283591517E-01  9.50433705934E-01
  9.64797671945E-01  9.79378721502E-01  9.94180135404E-01  1.00920524403E+00
  1.02445742809E+00  1.03994011940E+00  1.05565680162E+00  1.07161101108E+00
  1.08780633753E+00  1.10424642500E+00  1.12093497257E+00  1.13787573524E+00
  1.15507252475E+00  1.17252921045E+00  1.19024972018E+00  1.20823804111E+00
  1.22649822069E+00  1.24503436755E+00  1.26385065240E+00  1.28295130897E+00
  1.30234063500E+00  1.32202299317E+00  1.34200281209E+00  1.36228458731E+00
  1.38287288230E+00  1.40377232952E+00  1.42498763145E+00  1.44652356160E+00
  1.46838496565E+00  1.49057676252E+00  1.51310394544E+00  1.53597158314E+00
  1.55918482093E+00  1.58274888187E+00  1.60666906799E+00  1.63095076144E+00
  1.65559942568E+00  1.68062060678E+00  1.70601993460E+00  1.73180312411E+00
  1.75797597662E+00  1.78454438115E+00  1.81151431569E+00  1.83889184860E+00
  1.86668313993E+00  1.89489444284E+00  1.92353210499E+00  1.95260256999E+00
  1.98211237880E+00  2.01206817125E+00  2.04247668754E+00  2.07334476969E+00
  2.10467936317E+00  2.13648751838E+00  2.16877639229E+00  2.20155325005E+00
  2.23482546657E+00  2.26860052825E+00  2.30288603462E+00  2.33768970006E+00
  2.37301935555E+00  2.40888295041E+00  2.44528855409E+00  2.48224435801E+00
  2.51975867739E+00  2.55783995309E+00  2.59649675358E+00  2.63573777679E+00
  2.67557185212E+00  2.71600794241E+00  2.75705514594E+00  2.79872269851E+00
  2.84101997549E+00  2.88395649396E+00  2.92754191480E+00  2.97178604492E+00
  3.01669883944E+00  3.06229040393E+00  3.10857099668E+00  3.15555103101E+00
  3.20324107764E+00  3.25165186703E+00  3.30079429180E+00  3.35067940922E+00
  3.40131844364E+00  3.45272278905E+00  3.50490401166E+00  3.55787385246E+00
  3.61164422989E+00  3.66622724251E+00  3.72163517172E+00  3.77788048454E+00
  3.83497583642E+00  3.89293407403E+00  3.95176823824E+00  4.01149156697E+00
  4.07211749823E+00  4.13365967310E+00  4.19613193884E+00  4.25954835197E+00
  4.32392318144E+00  4.38927091188E+00  4.45560624679E+00  4.52294411190E+00
  4.59129965851E+00  4.66068826692E+00  4.73112554985E+00  4.80262735599E+00
  4.87520977355E+00  4.94888913387E+00  5.02368201513E+00  5.09960524603E+00
  5.17667590963E+00  5.25491134715E+00  5.33432916189E+00  5.41494722319E+00
  5.49678367047E+00  5.57985691726E+00  5.66418565539E+00  5.74978885920E+00
  5.83668578975E+00  5.92489599924E+00  6.01443933531E+00  6.10533594562E+00
  6.19760628226E+00  6.29127110647E+00  6.38635149322E+00  6.48286883599E+00
  6.58084485161E+00  6.68030158507E+00  6.78126141458E+00  6.88374705652E+00
  6.98778157058E+00  7.09338836498E+00  7.20059120168E+00  7.30941420178E+00
  7.41988185092E+00  7.53201900477E+00  7.64585089468E+00  7.76140313329E+00
  7.87870172035E+00  7.99777304854E+00  8.11864390941E+00  8.24134149940E+00
  8.36589342600E+00  8.49232771392E+00  8.62067281139E+00  8.75095759662E+00
  8.88321138423E+00  9.01746393188E+00  9.15374544695E+00  9.29208659336E+00
  9.43251849846E+00  9.57507276002E+00  9.71978145334E+00  9.86667713850E+00
  1.00157928676E+01  1.01671621924E+01  1.03208191716E+01  1.04767983786E+01
  1.06351349095E+01  1.07958643906E+01  1.09590229867E+01  1.11246474092E+01
  1.12927749243E+01  1.14634433615E+01  1.16366911217E+01  1.18125571865E+01
  1.19910811266E+01  1.21723031104E+01  1.23562639139E+01  1.25430049288E+01
  1.27325681728E+01  1.29249962983E+01  1.31203326025E+01  1.33186210369E+01
  1.35199062172E+01  1.37242334335E+01  1.39316486602E+01  1.41421985666E+01
  1.43559305273E+01  1.45728926330E+01  1.47931337010E+01  1.50167032865E+01
  1.52436516936E+01  1.54740299866E+01  1.57078900017E+01  1.59452843582E+01
  1.61862664711E+01  1.64308905621E+01  1.66792116729E+01  1.69312856766E+01
  1.71871692911E+01  1.74469200911E+01  1.77105965218E+01  1.79782579114E+01
  1.82499644849E+01  1.85257773774E+01  1.88057586480E+01  1.90899712936E+01
  1.93784792633E+01  1.96713474725E+01  1.99686418179E+01  2.02704291920E+01
  2.05767774982E+01  2.08877556661E+01  2.12034336672E+01  2.15238825303E+01
  2.18491743577E+01  2.21793823416E+01  2.25145807801E+01  2.28548450942E+01
  2.32002518449E+01  2.35508787501E+01  2.39068047024E+01  2.42681097866E+01
  2.46348752979E+01  2.50071837601E+01  2.53851189441E+01  2.57687658870E+01
  2.61582109109E+01  2.65535416427E+01  2.69548470333E+01  2.73622173782E+01
  2.77757443375E+01  2.81955209564E+01  2.86216416865E+01  2.90542024067E+01
  2.94933004450E+01  2.99390346004E+01  3.03915051648E+01  3.08508139462E+01
  3.13170642908E+01  3.17903611070E+01  3.22708108885E+01  3.27585217387E+01
  3.32536033945E+01  3.37561672513E+01  3.42663263881E+01  3.47841955930E+01
  3.53098913886E+01  3.58435320587E+01  3.63852376748E+01  3.69351301228E+01
  3.74933331309E+01  3.80599722972E+01  3.86351751178E+01  3.92190710158E+01
  3.98117913702E+01  4.04134695457E+01  4.10242409222E+01  4.16442429261E+01
  4.22736150603E+01  4.29124989363E+01  4.35610383055E+01  4.42193790922E+01
  4.48876694257E+01  4.55660596741E+01  4.62547024783E+01  4.69537527856E+01
  4.76633678854E+01  4.83837074441E+01  4.91149335410E+01  4.98572107052E+01
  5.06107059522E+01  5.13755888215E+01  5.21520314150E+01  5.29402084356E+01
  5.37402972265E+01  5.45524778109E+01  5.53769329330E+01  5.62138480987E+01
  5.70634116173E+01  5.79258146442E+01  5.88012512239E+01  5.96899183331E+01
  6.05920159258E+01
  </PP_R>
  <PP_RAB>
  5.06601091975E-07  5.14257387012E-07  5.22029392131E-07  5.29918856066E-07
  5.37927553979E-07  5.46057287860E-07  5.54309886936E-07  5.62687208074E-07
  5.71191136208E-07  5.79823584758E-07  5.88586496060E-07  5.97481841807E-07
  6.06511623489E-07  6.15677872845E-07  6.24982652319E-07  6.34428055528E-07
  6.44016207725E-07  6.53749266286E-07  6.63629421190E-07  6.73658895513E-07
  6.83839945930E-07  6.94174863219E-07  7.04665972782E-07  7.15315635161E-07
  7.26126246576E-07  7.37100239459E-07  7.48240083007E-07  7.59548283729E-07
  7.71027386020E-07  7.82679972725E-07  7.94508665727E-07  8.06516126529E-07
  8.18705056863E-07  8.31078199289E-07  8.43638337815E-07  8.56388298527E-07
  8.69330950219E-07  8.82469205042E-07  8.95806019159E-07  9.09344393410E-07
  9.23087373986E-07  9.37038053115E-07  9.51199569759E-07  9.65575110319E-07
  9.80167909352E-07  9.94981250301E-07  1.01001846623E-06  1.02528294057E-06
  1.04077810790E-06  1.05650745470E-06  1.07247452013E-06  1.08868289685E-06
  1.10513623181E-06  1.12183822709E-06  1.13879264071E-06  1.15600328747E-06
  1.17347403985E-06  1.19120882884E-06  1.20921164484E-06  1.22748653856E-06
  1.24603762194E-06  1.26486906903E-06  1.28398511700E-06  1.30339006704E-06
  1.32308828534E-06  1.34308420409E-06  1.36338232245E-06  1.38398720759E-06
  1.40490349568E-06  1.42613589299E-06  1.44768917689E-06  1.46956819697E-06
  1.49177787609E-06  1.51432321152E-06  1.53720927606E-06  1.56044121918E-06
  1.58402426816E-06  1.60796372927E-06  1.63226498901E-06  1.65693351526E-06
  1.68197485854E-06  1.70739465326E-06  1.73319861898E-06  1.75939256170E-06
  1.78598237517E-06  1.81297404221E-06  1.84037363606E-06  1.86818732173E-06
  1.89642135744E-06  1.92508209596E-06  1.95417598606E-06  1.98370957401E-06
  2.01368950498E-06  2.04412252459E-06  2.07501548038E-06  2.10637532342E-06
  2.13820910978E-06  2.17052400222E-06  2.20332727172E-06  2.23662629914E-06
  2.27042857692E-06  2.30474171071E-06  2.33957342111E-06  2.37493154540E-06
  2.41082403930E-06  2.44725897878E-06  2.48424456186E-06  2.52178911044E-06
  2.55990107222E-06  2.59858902253E-06  2.63786166634E-06  2.67772784015E-06
  2.71819651402E-06  2.75927679358E-06  2.80097792205E-06  2.84330928237E-06
  2.88628039928E-06  2.92990094145E-06  2.97418072370E-06  3.01912970916E-06
  3.06475801153E-06  3.11107589739E-06  3.15809378846E-06  3.20582226394E-06
  3.25427206296E-06  3.30345408693E-06  3.35337940200E-06  3.40405924158E-06
  3.45550500886E-06  3.50772827934E-06  3.56074080348E-06  3.61455450932E-06
  3.66918150517E-06  3.72463408235E-06  3.78092471791E-06  3.83806607747E-06
  3.89607101810E-06  3.95495259115E-06  4.01472404521E-06  4.07539882912E-06
  4.13699059496E-06  4.19951320113E-06  4.26298071550E-06  4.32740741851E-06
  4.39280780644E-06  4.45919659466E-06  4.52658872093E-06  4.59499934876E-06
  4.66444387083E-06  4.73493791244E-06  4.80649733507E-06  4.87913823987E-06
  4.95287697136E-06  5.02773012106E-06  5.10371453125E-06  5.18084729874E-06
  5.25914577873E-06  5.33862758871E-06  5.41931061241E-06  5.50121300387E-06
  5.58435319146E-06  5.66874988208E-06  5.75442206534E-06  5.84138901784E-06
  5.92967030751E-06  6.01928579802E-06  6.11025565323E-06  6.20260034173E-06
  6.29634064148E-06  6.39149764444E-06  6.48809276133E-06  6.58614772647E-06
  6.68568460262E-06  6.78672578602E-06  6.88929401136E-06  6.99341235691E-06
  7.09910424974E-06  7.20639347098E-06  7.31530416116E-06  7.42586082563E-06
  7.53808834011E-06  7.65201195627E-06  7.76765730741E-06  7.88505041421E-06
  8.00421769062E-06  8.12518594977E-06  8.24798241005E-06  8.37263470116E-06
  8.49917087040E-06  8.62761938895E-06  8.75800915825E-06  8.89036951657E-06
  9.02473024553E-06  9.16112157687E-06  9.29957419921E-06  9.44011926498E-06
  9.58278839741E-06  9.72761369766E-06  9.87462775203E-06  1.00238636393E-05
  1.01753549382E-05  1.03291357349E-05  1.04852406306E-05  1.06437047498E-05
  1.08045637474E-05  1.09678538175E-05  1.11336117009E-05  1.13018746940E-05
  1.14726806565E-05  1.16460680206E-05  1.18220757991E-05  1.20007435945E-05
  1.21821116079E-05  1.23662206478E-05  1.25531121395E-05  1.27428281344E-05
  1.29354113194E-05  1.31309050265E-05  1.33293532426E-05  1.35308006195E-05
  1.37352924835E-05  1.39428748463E-05  1.41535944148E-05  1.43674986018E-05
  1.45846355365E-05  1.48050540758E-05  1.50288038146E-05  1.52559350978E-05
  1.54864990307E-05  1.57205474912E-05  1.59581331412E-05  1.61993094386E-05
  1.64441306488E-05  1.66926518579E-05  1.69449289840E-05  1.72010187907E-05
  1.74609788991E-05  1.77248678014E-05  1.79927448738E-05  1.82646703897E-05
  1.85407055335E-05  1.88209124143E-05  1.91053540797E-05  1.93940945304E-05
  1.96871987342E-05  1.99847326408E-05  2.02867631965E-05  2.05933583596E-05
  2.09045871151E-05  2.12205194909E-05  2.15412265732E-05  2.18667805223E-05
  2.21972545893E-05  2.25327231322E-05  2.28732616328E-05  2.32189467138E-05
  2.35698561558E-05  2.39260689149E-05  2.42876651404E-05  2.46547261930E-05
  2.50273346631E-05  2.54055743890E-05  2.57895304764E-05  2.61792893168E-05
  2.65749386079E-05  2.69765673722E-05  2.73842659780E-05  2.77981261592E-05
  2.82182410361E-05  2.86447051362E-05  2.90776144158E-05  2.95170662813E-05
  2.99631596113E-05  3.04159947786E-05  3.08756736730E-05  3.13422997243E-05
  3.18159779253E-05  3.22968148555E-05  3.27849187052E-05  3.32803993001E-05
  3.37833681251E-05  3.42939383505E-05  3.48122248568E-05  3.53383442604E-05
  3.58724149406E-05  3.64145570656E-05  3.69648926195E-05  3.75235454301E-05
  3.80906411968E-05  3.86663075185E-05  3.92506739225E-05  3.98438718937E-05
  4.04460349041E-05  4.10572984431E-05  4.16778000474E-05  4.23076793326E-05
  4.29470780241E-05  4.35961399893E-05  4.42550112699E-05  4.49238401148E-05
  4.56027770133E-05  4.62919747289E-05  4.69915883342E-05  4.77017752451E-05
  4.84226952567E-05  4.91545105789E-05  4.98973858735E-05  5.06514882903E-05
  5.14169875057E-05  5.21940557603E-05  5.29828678975E-05  5.37836014036E-05
  5.45964364469E-05  5.54215559187E-05  5.62591454744E-05  5.71093935752E-05
  5.79724915304E-05  5.88486335409E-05  5.97380167421E-05  6.06408412491E-05
  6.15573102013E-05  6.24876298079E-05  6.34320093949E-05  6.43906614516E-05
  6.53638016788E-05  6.63516490371E-05  6.73544257963E-05  6.83723575855E-05
  6.94056734437E-05  7.04546058711E-05  7.15193908821E-05  7.26002680578E-05
  7.36974806001E-05  7.48112753864E-05  7.59419030253E-05  7.70896179128E-05
  7.82546782895E-05  7.94373462989E-05  8.06378880465E-05  8.18565736590E-05
  8.30936773459E-05  8.43494774608E-05  8.56242565640E-05  8.69183014861E-05
  8.82319033927E-05  8.95653578499E-05  9.09189648904E-05  9.22930290816E-05
  9.36878595937E-05  9.51037702694E-05  9.65410796947E-05  9.80001112702E-05
  9.94811932842E-05  1.00984658986E-04  1.02510846663E-04  1.04060099712E-04
  1.05632766723E-04  1.07229201552E-04  1.08849763404E-04  1.10494816912E-04
  1.12164732219E-04  1.13859885065E-04  1.15580656865E-04  1.17327434801E-04
  1.19100611904E-04  1.20900587147E-04  1.22727765533E-04  1.24582558184E-04
  1.26465382435E-04  1.28376661932E-04  1.30316826719E-04  1.32286313341E-04
  1.34285564943E-04  1.36315031363E-04  1.38375169240E-04  1.40466442114E-04
  1.42589320530E-04  1.44744282144E-04  1.46931811833E-04  1.49152401800E-04
  1.51406551686E-04  1.53694768684E-04  1.56017567655E-04  1.58375471236E-04
  1.60769009966E-04  1.63198722402E-04  1.65665155239E-04  1.68168863435E-04
  1.70710410334E-04  1.73290367796E-04  1.75909316322E-04  1.78567845186E-04
  1.81266552568E-04  1.84006045690E-04  1.86786940948E-04  1.89609864056E-04
  1.92475450183E-04  1.95384344099E-04  1.98337200316E-04  2.01334683240E-04
  2.04377467317E-04  2.07466237187E-04  2.10601687835E-04  2.13784524752E-04
  2.17015464088E-04  2.20295232819E-04  2.23624568908E-04  2.27004221467E-04
  2.30434950934E-04  2.33917529237E-04  2.37452739972E-04  2.41041378574E-04
  2.44684252503E-04  2.48382181422E-04  2.52135997379E-04  2.55946544999E-04
  2.59814681672E-04  2.63741277744E-04  2.67727216717E-04  2.71773395442E-04
  2.75880724329E-04  2.80050127542E-04  2.84282543215E-04  2.88578923659E-04
  2.92940235579E-04  2.97367460288E-04  3.01861593930E-04  3.06423647704E-04
  3.11054648092E-04  3.15755637088E-04  3.20527672434E-04  3.25371827858E-04
  3.30289193317E-04  3.35280875237E-04  3.40347996769E-04  3.45491698036E-04
  3.50713136393E-04  3.56013486685E-04  3.61393941513E-04  3.66855711503E-04
  3.72400025575E-04  3.78028131225E-04  3.83741294799E-04  3.89540801783E-04
  3.95427957090E-04  4.01404085357E-04  4.07470531236E-04  4.13628659703E-04
  4.19879856364E-04  4.26225527764E-04  4.32667101706E-04  4.39206027572E-04
  4.45843776646E-04  4.52581842451E-04  4.59421741080E-04  4.66365011538E-04
  4.73413216092E-04  4.80567940617E-04  4.87830794956E-04  4.95203413282E-04
  5.02687454464E-04  5.10284602445E-04  5.17996566614E-04  5.25825082196E-04
  5.33771910640E-04  5.41838840016E-04  5.50027685416E-04  5.58340289366E-04
  5.66778522237E-04  5.75344282666E-04  5.84039497987E-04  5.92866124658E-04
  6.01826148708E-04  6.10921586181E-04  6.20154483588E-04  6.29526918370E-04
  6.39040999365E-04  6.48698867281E-04  6.58502695178E-04  6.68454688960E-04
  6.78557087867E-04  6.88812164981E-04  6.99222227739E-04  7.09789618447E-04
  7.20516714814E-04  7.31405930482E-04  7.42459715570E-04  7.53680557226E-04
  7.65070980187E-04  7.76633547346E-04  7.88370860330E-04  8.00285560083E-04
  8.12380327463E-04  8.24657883845E-04  8.37120991729E-04  8.49772455369E-04
  8.62615121395E-04  8.75651879463E-04  8.88885662899E-04  9.02319449358E-04
  9.15956261500E-04  9.29799167665E-04  9.43851282566E-04  9.58115767987E-04
  9.72595833498E-04  9.87294737174E-04  1.00221578633E-03  1.01736233827E-03
  1.03273780103E-03  1.04834563414E-03  1.06418934945E-03  1.08027251185E-03