<PP_INFO>
Generated using ld1 code                                                        
Author: Brandon Wood (Materials Science, MIT)   Generation date: Feb. 2002
Info: automatically converted from PWSCF format                                 
    1        The Pseudo was generated with a Scalar-Relativistic Calculation
  0.00000000000E+00    Local Potential cutoff radius
nl pn  l   occ               Rcut            Rcut US             E pseu
6S  0  0  0.50      0.00000000000      0.00000000000      0.00000000000
6P  0  1  0.05      0.00000000000      0.00000000000      0.00000000000
5D  0  2  0.05      0.00000000000      0.00000000000      0.00000000000
</PP_INFO>


<PP_HEADER>
   0                   Version Number
  Cs                   Element
   NC                  Norm - Conserving pseudopotential
    T                  Nonlinear Core Correction
 SLA  PW   PBE  PBE    PBE  Exchange-Correlation functional
    1.00000000000      Z valence
    0.00000000000      Total energy
  0.0000000  0.0000000 Suggested cutoff for wfc and rho
    2                  Max angular momentum component
  537                  Number of points in mesh
    3    2             Number of Wavefunctions, Number of Projectors
 Wavefunctions         nl  l   occ
                       6S  0  0.50
                       6P  1  0.05
                       5D  2  0.05
</PP_HEADER>


<PP_MESH>
  <PP_R>
  6.09932050732E-06  6.28507247080E-06  6.47648142376E-06  6.67371964718E-06
  6.87696466878E-06  7.08639942278E-06  7.30221241461E-06  7.52459789052E-06
  7.75375601247E-06  7.98989303822E-06  8.23322150703E-06  8.48396043097E-06
  8.74233549197E-06  9.00857924504E-06  9.28293132753E-06  9.56563867484E-06
  9.85695574265E-06  1.01571447360E-05  1.04664758452E-05  1.07852274892E-05
  1.11136865660E-05  1.14521487109E-05  1.18009185626E-05  1.21603100377E-05
  1.25306466126E-05  1.29122616153E-05  1.33054985251E-05  1.37107112817E-05
  1.41282646040E-05  1.45585343180E-05  1.50019076957E-05  1.54587838030E-05
  1.59295738592E-05  1.64147016072E-05  1.69146036946E-05  1.74297300672E-05
  1.79605443733E-05  1.85075243817E-05  1.90711624114E-05  1.96519657746E-05
  2.02504572335E-05  2.08671754709E-05  2.15026755748E-05  2.21575295382E-05
  2.28323267739E-05  2.35276746448E-05  2.42441990112E-05  2.49825447931E-05
  2.57433765518E-05  2.65273790870E-05  2.73352580541E-05  2.81677405987E-05
  2.90255760111E-05  2.99095364013E-05  3.08204173932E-05  3.17590388411E-05
  3.27262455678E-05  3.37229081246E-05  3.47499235751E-05  3.58082163025E-05
  3.68987388417E-05  3.80224727366E-05  3.91804294236E-05  4.03736511418E-05
  4.16032118713E-05  4.28702182998E-05  4.41758108186E-05  4.55211645491E-05
  4.69074904005E-05  4.83360361596E-05  4.98080876140E-05  5.13249697094E-05
  5.28880477420E-05  5.44987285877E-05  5.61584619679E-05  5.78687417547E-05
  5.96311073153E-05  6.14471448978E-05  6.33184890584E-05  6.52468241333E-05
  6.72338857542E-05  6.92814624108E-05  7.13913970601E-05  7.35655887859E-05
  7.58059945073E-05  7.81146307410E-05  8.04935754151E-05  8.29449697406E-05
  8.54710201379E-05  8.80740002227E-05  9.07562528529E-05  9.35201922369E-05
  9.63683061067E-05  9.93031579571E-05  1.02327389353E-04  1.05443722306E-04
  1.08654961727E-04  1.11963997949E-04  1.15373809326E-04  1.18887464919E-04
  1.22508127256E-04  1.26239055177E-04  1.30083606769E-04  1.34045242389E-04
  1.38127527774E-04  1.42334137259E-04  1.46668857075E-04  1.51135588762E-04
  1.55738352682E-04  1.60481291631E-04  1.65368674576E-04  1.70404900491E-04
  1.75594502319E-04  1.80942151052E-04  1.86452659935E-04  1.92130988797E-04
  1.97982248519E-04  2.04011705629E-04  2.10224787045E-04  2.16627084960E-04
  2.23224361874E-04  2.30022555782E-04  2.37027785517E-04  2.44246356259E-04
  2.51684765209E-04  2.59349707436E-04  2.67248081907E-04  2.75386997692E-04
  2.83773780363E-04  2.92415978593E-04  3.01321370941E-04  3.10497972863E-04
  3.19954043920E-04  3.29698095215E-04  3.39738897050E-04  3.50085486825E-04
  3.60747177170E-04  3.71733564326E-04  3.83054536783E-04  3.94720284179E-04
  4.06741306476E-04  4.19128423404E-04  4.31892784206E-04  4.45045877666E-04
  4.58599542459E-04  4.72565977796E-04  4.86957754412E-04  5.01787825877E-04
  5.17069540258E-04  5.32816652128E-04  5.49043334951E-04  5.65764193837E-04
  5.82994278688E-04  6.00749097743E-04  6.19044631538E-04  6.37897347288E-04
  6.57324213710E-04  6.77342716295E-04  6.97970873046E-04  7.19227250698E-04
  7.41130981425E-04  7.63701780063E-04  7.86959961854E-04  8.10926460732E-04
  8.35622848164E-04  8.61071352566E-04  8.87294879309E-04  9.14317031338E-04
  9.42162130413E-04  9.70855239004E-04  1.00042218284E-03  1.03088957418E-03
  1.06228483572E-03  1.09463622532E-03  1.12797286141E-03  1.16232474921E-03
  1.19772280775E-03  1.23419889767E-03  1.27178584990E-03  1.31051749525E-03
  1.35042869481E-03  1.39155537134E-03  1.43393454165E-03  1.47760434983E-03
  1.52260410168E-03  1.56897429999E-03  1.61675668108E-03  1.66599425232E-03
  1.71673133084E-03  1.76901358345E-03  1.82288806769E-03  1.87840327424E-03
  1.93560917053E-03  1.99455724574E-03  2.05530055710E-03  2.11789377770E-03
  2.18239324566E-03  2.24885701486E-03  2.31734490718E-03  2.38791856634E-03
  2.46064151339E-03  2.53557920391E-03  2.61279908687E-03  2.69237066537E-03
  2.77436555922E-03  2.85885756934E-03  2.94592274425E-03  3.03563944849E-03
  3.12808843315E-03  3.22335290854E-03  3.32151861914E-03  3.42267392070E-03
  3.52690985983E-03  3.63432025591E-03  3.74500178554E-03  3.85905406958E-03
  3.97657976277E-03  4.09768464617E-03  4.22247772236E-03  4.35107131352E-03
  4.48358116257E-03  4.62012653732E-03  4.76083033782E-03  4.90581920699E-03
  5.05522364460E-03  5.20917812473E-03  5.36782121680E-03  5.53129571030E-03
  5.69974874332E-03  5.87333193495E-03  6.05220152178E-03  6.23651849852E-03
  6.42644876289E-03  6.62216326494E-03  6.82383816093E-03  7.03165497190E-03
  7.24580074699E-03  7.46646823186E-03  7.69385604214E-03  7.92816884221E-03
  8.16961752940E-03  8.41841942384E-03  8.67479846402E-03  8.93898540838E-03
  9.21121804301E-03  9.49174139565E-03  9.78080795627E-03  1.00786779043E-02
  1.03856193427E-02  1.07019085396E-02  1.10278301766E-02  1.13636776051E-02
  1.17097531106E-02  1.20663681843E-02  1.24338438039E-02  1.28125107222E-02
  1.32027097650E-02  1.36047921378E-02  1.40191197419E-02  1.44460655001E-02
  1.48860136923E-02  1.53393603018E-02  1.58065133709E-02  1.62878933690E-02
  1.67839335707E-02  1.72950804455E-02  1.78217940601E-02  1.83645484924E-02
  1.89238322580E-02  1.95001487501E-02  2.00940166923E-02  2.07059706059E-02
  2.13365612908E-02  2.19863563210E-02  2.26559405561E-02  2.33459166670E-02
  2.40569056789E-02  2.47895475297E-02  2.55445016466E-02  2.63224475393E-02
  2.71240854117E-02  2.79501367918E-02  2.88013451817E-02  2.96784767265E-02
  3.05823209036E-02  3.15136912340E-02  3.24734260136E-02  3.34623890688E-02
  3.44814705328E-02  3.55315876479E-02  3.66136855904E-02  3.77287383213E-02
  3.88777494636E-02  4.00617532047E-02  4.12818152279E-02  4.25390336714E-02
  4.38345401167E-02  4.51695006070E-02  4.65451166969E-02  4.79626265337E-02
  4.94233059720E-02  5.09284697218E-02  5.24794725321E-02  5.40777104102E-02
  5.57246218781E-02  5.74216892671E-02  5.91704400525E-02  6.09724482282E-02
  6.28293357230E-02  6.47427738610E-02  6.67144848658E-02  6.87462434103E-02
  7.08398782145E-02  7.29972736908E-02  7.52203716409E-02  7.75111730031E-02
  7.98717396531E-02  8.23041962603E-02  8.48107321998E-02  8.73936035232E-02
  9.00551349890E-02  9.27977221552E-02  9.56238335354E-02  9.85360128206E-02
  1.01536881169E-01  1.04629139564E-01  1.07815571247E-01  1.11099044222E-01
  1.14482513837E-01  1.17969025442E-01  1.21561717132E-01  1.25263822574E-01
  1.29078673912E-01  1.33009704769E-01  1.37060453339E-01  1.41234565569E-01
  1.45535798442E-01  1.49968023357E-01  1.54535229616E-01  1.59241528013E-01
  1.64091154535E-01  1.69088474172E-01  1.74237984850E-01  1.79544321476E-01
  1.85012260110E-01  1.90646722268E-01  1.96452779344E-01  2.02435657183E-01
  2.08600740778E-01  2.14953579121E-01  2.21499890195E-01  2.28245566121E-01
  2.35196678464E-01  2.42359483694E-01  2.49740428820E-01  2.57346157189E-01
  2.65183514471E-01  2.73259554816E-01  2.81581547206E-01  2.90156981996E-01
  2.98993577656E-01  3.08099287719E-01  3.17482307938E-01  3.27151083665E-01
  3.37114317450E-01  3.47380976877E-01  3.57960302632E-01  3.68861816823E-01
  3.80095331547E-01  3.91670957727E-01  4.03599114208E-01  4.15890537135E-01
  4.28556289619E-01  4.41607771693E-01  4.55056730570E-01  4.68915271222E-01
  4.83195867270E-01  4.97911372216E-01  5.13075031007E-01  5.28700491960E-01
  5.44801819044E-01  5.61393504540E-01  5.78490482085E-01  5.96108140113E-01
  6.14262335706E-01  6.32969408865E-01  6.52246197219E-01  6.72110051179E-01
  6.92578849553E-01  7.13671015642E-01  7.35405533819E-01  7.57801966619E-01
  7.80880472341E-01  8.04661823200E-01  8.29167424015E-01  8.54419331483E-01
  8.80440274024E-01  9.07253672244E-01  9.34883660010E-01  9.63355106176E-01
  9.92693636966E-01  1.02292565904E+00  1.05407838325E+00  1.08617984917E+00
  1.11925895026E+00  1.15334545997E+00  1.18847005844E+00  1.22466436018E+00
  1.26196094252E+00  1.30039337489E+00  1.33999624908E+00  1.38080521035E+00
  1.42285698951E+00  1.46618943601E+00  1.51084155197E+00  1.55685352731E+00
  1.60426677592E+00  1.65312397292E+00  1.70346909308E+00  1.75534745042E+00
  1.80880573894E+00  1.86389207474E+00  1.92065603921E+00  1.97914872377E+00
  2.03942277578E+00  2.10153244595E+00  2.16553363718E+00  2.23148395486E+00
  2.29944275873E+00  2.36947121630E+00  2.44163235791E+00  2.51599113345E+00
  2.59261447085E+00  2.67157133629E+00  2.75293279626E+00  2.83677208157E+00
  2.92316465325E+00  3.01218827043E+00  3.10392306039E+00  3.19845159062E+00
  3.29585894318E+00  3.39623279128E+00  3.49966347813E+00  3.60624409835E+00
  3.71607058169E+00  3.82924177939E+00  3.94585955318E+00  4.06602886692E+00
  4.18985788110E+00  4.31745805020E+00  4.44894422299E+00  4.58443474588E+00
  4.72405156951E+00  4.86792035843E+00  5.01617060427E+00  5.16893574225E+00
  5.32635327132E+00  5.48856487787E+00  5.65571656330E+00  5.82795877541E+00
  6.00544654381E+00  6.18833961949E+00  6.37680261854E+00  6.57100517041E+00
  6.77112207048E+00  6.97733343747E+00  7.18982487555E+00  7.40878764134E+00
  7.63441881612E+00  7.86692148317E+00  8.10650491059E+00  8.35338473964E+00
  8.60778317882E+00  8.86992920390E+00  9.14005876400E+00  9.41841499397E+00
  9.70524843319E+00  1.00008172511E+01  1.03053874797E+01  1.06192332526E+01
  1.09426370522E+01  1.12758899639E+01  1.16192919376E+01  1.19731520585E+01
  1.23377888244E+01  1.27135304330E+01  1.31007150773E+01  1.34996912494E+01
  1.39108180549E+01  1.43344655357E+01  1.47710150030E+01  1.52208593810E+01
  1.56844035598E+01  1.61620647606E+01  1.66542729106E+01  1.71614710304E+01
  1.76841156326E+01  1.82226771326E+01  1.87776402720E+01  1.93495045552E+01
  1.99387846987E+01  2.05460110943E+01  2.11717302868E+01  2.18165054657E+01
  2.24809169721E+01  2.31655628213E+01  2.38710592408E+01  2.45980412250E+01
  2.53471631067E+01  2.61190991461E+01  2.69145441379E+01  2.77342140362E+01
  2.85788465992E+01  2.94492020533E+01  3.03460637772E+01  3.12702390068E+01
  3.22225595624E+01  3.32038825967E+01  3.42150913666E+01  3.52570960283E+01
  3.63308344564E+01  3.74372730880E+01  3.85774077923E+01  3.97522647678E+01
  4.09629014649E+01  4.22104075384E+01  4.34959058280E+01  4.48205533688E+01
  4.61855424332E+01  4.75921016034E+01  4.90414968776E+01  5.05350328094E+01
  5.20740536819E+01  5.36599447179E+01  5.52941333262E+01  5.69780903871E+01
  5.87133315754E+01
  </PP_R>
  <PP_RAB>
  1.82979615220E-07  1.88552174124E-07  1.94294442713E-07  2.00211589416E-07
  2.06308940063E-07  2.12591982683E-07  2.19066372438E-07  2.25737936716E-07
  2.32612680374E-07  2.39696791146E-07  2.46996645211E-07  2.54518812929E-07
  2.62270064759E-07  2.70257377351E-07  2.78487939826E-07  2.86969160245E-07
  2.95708672279E-07  3.04714342080E-07  3.13994275357E-07  3.23556824677E-07
  3.33410596980E-07  3.43564461326E-07  3.54027556879E-07  3.64809301130E-07
  3.75919398378E-07  3.87367848460E-07  3.99164955753E-07  4.11321338451E-07
  4.23847938119E-07  4.36756029541E-07  4.50057230872E-07  4.63763514091E-07
  4.77887215777E-07  4.92441048216E-07  5.07438110839E-07  5.22891902015E-07
  5.38816331199E-07  5.55225731452E-07  5.72134872342E-07  5.89558973238E-07
  6.07513717006E-07  6.26015264128E-07  6.45080267245E-07  6.64725886146E-07
  6.84969803216E-07  7.05830239345E-07  7.27325970335E-07  7.49476343793E-07
  7.72301296553E-07  7.95821372611E-07  8.20057741624E-07  8.45032217960E-07
  8.70767280334E-07  8.97286092038E-07  9.24612521795E-07  9.52771165233E-07
  9.81787367035E-07  1.01168724374E-06  1.04249770725E-06  1.07424648908E-06
  1.10696216525E-06  1.14067418210E-06  1.17541288271E-06  1.21120953425E-06
  1.24809635614E-06  1.28610654899E-06  1.32527432456E-06  1.36563493647E-06
  1.40722471201E-06  1.45008108479E-06  1.49424262842E-06  1.53974909128E-06
  1.58664143226E-06  1.63496185763E-06  1.68475385904E-06  1.73606225264E-06
  1.78893321946E-06  1.84341434693E-06  1.89955467175E-06  1.95740472400E-06
  2.01701657263E-06  2.07844387232E-06  2.14174191180E-06  2.20696766358E-06
  2.27417983522E-06  2.34343892223E-06  2.41480726245E-06  2.48834909222E-06
  2.56413060414E-06  2.64222000668E-06  2.72268758559E-06  2.80560576711E-06
  2.89104918320E-06  2.97909473871E-06  3.06982168058E-06  3.16331166919E-06
  3.25964885182E-06  3.35891993846E-06  3.46121427977E-06  3.56662394757E-06
  3.67524381768E-06  3.78717165532E-06  3.90250820308E-06  4.02135727166E-06
  4.14382583322E-06  4.27002411776E-06  4.40006571224E-06  4.53406766287E-06
  4.67215058045E-06  4.81443874894E-06  4.96106023729E-06  5.11214701473E-06
  5.26783506957E-06  5.42826453155E-06  5.59357979804E-06  5.76392966392E-06
  5.93946745558E-06  6.12035116887E-06  6.30674361135E-06  6.49881254879E-06
  6.69673085622E-06  6.90067667346E-06  7.11083356551E-06  7.32739068777E-06
  7.55054295626E-06  7.78049122309E-06  8.01744245722E-06  8.26160993075E-06
  8.51321341090E-06  8.77247935778E-06  9.03964112823E-06  9.31493918590E-06
  9.59862131761E-06  9.89094285644E-06  1.01921669115E-05  1.05025646048E-05
  1.08224153151E-05  1.11520069298E-05  1.14916361035E-05  1.18416085254E-05
  1.22022391943E-05  1.25738527021E-05  1.29567835262E-05  1.33513763300E-05
  1.37579862738E-05  1.41769793339E-05  1.46087326323E-05  1.50536347763E-05
  1.55120862077E-05  1.59844995638E-05  1.64713000485E-05  1.69729258151E-05
  1.74898283607E-05  1.80224729323E-05  1.85713389461E-05  1.91369204186E-05
  1.97197264113E-05  2.03202814888E-05  2.09391261914E-05  2.15768175209E-05
  2.22339294427E-05  2.29110534019E-05  2.36087988556E-05  2.43277938220E-05
  2.50686854449E-05  2.58321405770E-05  2.66188463793E-05  2.74295109401E-05
  2.82648639124E-05  2.91256571701E-05  3.00126654853E-05  3.09266872254E-05
  3.18685450715E-05  3.28390867595E-05  3.38391858422E-05  3.48697424764E-05
  3.59316842326E-05  3.70259669301E-05  3.81535754971E-05  3.93155248575E-05
  4.05128608442E-05  4.17466611403E-05  4.30180362495E-05  4.43281304950E-05
  4.56781230503E-05  4.70692289997E-05  4.85027004324E-05  4.99798275695E-05
  5.15019399253E-05  5.30704075034E-05  5.46866420306E-05  5.63520982271E-05
  5.80682751160E-05  5.98367173721E-05  6.16590167130E-05  6.35368133310E-05
  6.54717973699E-05  6.74657104459E-05  6.95203472154E-05  7.16375569901E-05
  7.38192454018E-05  7.60673761173E-05  7.83839726060E-05  8.07711199612E-05
  8.32309667765E-05  8.57657270802E-05  8.83776823276E-05  9.10691834547E-05
  9.38426529944E-05  9.67005872563E-05  9.96455585742E-05  1.02680217621E-04
  1.05807295795E-04  1.09029607677E-04  1.12350053566E-04  1.15771622087E-04
  1.19297392883E-04  1.22930539385E-04  1.26674331671E-04  1.30532139406E-04
  1.34507434877E-04  1.38603796120E-04  1.42824910135E-04  1.47174576210E-04
  1.51656709338E-04  1.56275343742E-04  1.61034636504E-04  1.65938871309E-04
  1.70992462300E-04  1.76199958049E-04  1.81566045653E-04  1.87095554956E-04
  1.92793462887E-04  1.98664897948E-04  2.04715144828E-04  2.10949649157E-04
  2.17374022410E-04  2.23994046956E-04  2.30815681264E-04  2.37845065266E-04
  2.45088525882E-04  2.52552582715E-04  2.60243953921E-04  2.68169562251E-04
  2.76336541290E-04  2.84752241870E-04  2.93424238688E-04  3.02360337128E-04
  3.11568580281E-04  3.21057256188E-04  3.30834905298E-04  3.40910328154E-04
  3.51292593318E-04  3.61991045529E-04  3.73015314116E-04  3.84375321665E-04
  3.96081292949E-04  4.08143764134E-04  4.20573592256E-04  4.33381965002E-04
  4.46580410770E-04  4.60180809053E-04  4.74195401127E-04  4.88636801071E-04
  5.03518007120E-04  5.18852413364E-04  5.34653821804E-04  5.50936454773E-04
  5.67714967741E-04  5.85004462502E-04  6.02820500769E-04  6.21179118177E-04
  6.40096838723E-04  6.59590689631E-04  6.79678216684E-04  7.00377500011E-04
  7.21707170366E-04  7.43686425890E-04  7.66335049398E-04  7.89673426180E-04
  8.13722562350E-04  8.38504103754E-04  8.64040355452E-04  8.90354301794E-04
  9.17469627108E-04  9.45410737019E-04  9.74202780409E-04  1.00387167206E-03
  1.03444411598E-03  1.06594762944E-03  1.09841056771E-03  1.13186214964E-03
  1.16633248391E-03  1.20185259614E-03  1.23845445684E-03  1.27617101014E-03
  1.31503620350E-03  1.35508501821E-03  1.39635350091E-03  1.43887879601E-03
  1.48269917916E-03  1.52785409165E-03  1.57438417596E-03  1.62233131231E-03
  1.67173865634E-03  1.72265067801E-03  1.77511320158E-03  1.82917344684E-03
  1.88488007169E-03  1.94228321583E-03  2.00143454597E-03  2.06238730231E-03
  2.12519634643E-03  2.18991821072E-03  2.25661114923E-03  2.32533519009E-03
  2.39615218959E-03  2.46912588781E-03  2.54432196599E-03  2.62180810570E-03
  2.70165404967E-03  2.78393166466E-03  2.86871500606E-03  2.95608038462E-03
  3.04610643506E-03  3.13887418691E-03  3.23446713741E-03  3.33297132667E-03
  3.43447541511E-03  3.53907076325E-03  3.64685151397E-03  3.75791467723E-03
  3.87236021736E-03  3.99029114308E-03  4.11181360018E-03  4.23703696708E-03
  4.36607395325E-03  4.49904070071E-03  4.63605688848E-03  4.77724584040E-03
  4.92273463605E-03  5.07265422517E-03  5.22713954551E-03  5.38632964428E-03
  5.55036780331E-03  5.71940166803E-03  5.89358338033E-03  6.07306971549E-03
  6.25802222334E-03  6.44860737363E-03  6.64499670584E-03  6.84736698364E-03
  7.05590035393E-03  7.27078451083E-03  7.49221286459E-03  7.72038471566E-03
  7.95550543412E-03  8.19778664448E-03  8.44744641619E-03  8.70470945989E-03
  8.96980732969E-03  9.24297863157E-03  9.52446923813E-03  9.81453250994E-03
  1.01134295235E-02  1.04214293063E-02  1.07388090790E-02  1.10658545047E-02
  1.14028599464E-02  1.17501287318E-02  1.21079734262E-02  1.24767161141E-02
  1.28566886886E-02  1.32482331508E-02  1.36517019171E-02  1.40674581367E-02
  1.44958760181E-02  1.49373411665E-02  1.53922509302E-02  1.58610147588E-02
  1.63440545713E-02  1.68418051362E-02  1.73547144625E-02  1.78832442034E-02
  1.84278700712E-02  1.89890822660E-02  1.95673859166E-02  2.01633015354E-02
  2.07773654866E-02  2.14101304693E-02  2.20621660146E-02  2.27340589986E-02
  2.34264141702E-02  2.41398546960E-02  2.48750227205E-02  2.56325799445E-02
  2.64132082207E-02  2.72176101673E-02  2.80465098003E-02  2.89006531853E-02
  2.97808091090E-02  3.06877697712E-02  3.16223514976E-02  3.25853954750E-02
  3.35777685079E-02  3.46003637990E-02  3.56541017531E-02  3.67399308055E-02
  3.78588282757E-02  3.90118012468E-02  4.01998874725E-02  4.14241563105E-02
  4.26857096853E-02  4.39856830803E-02  4.53252465591E-02  4.67056058194E-02
  4.81280032776E-02  4.95937191876E-02  5.11040727924E-02  5.26604235125E-02
  5.42641721683E-02  5.59167622421E-02  5.76196811764E-02  5.93744617131E-02
  6.11826832734E-02  6.30459733785E-02  6.49660091154E-02  6.69445186458E-02
  6.89832827619E-02  7.10841364890E-02  7.32489707372E-02  7.54797340036E-02
  7.77784341256E-02  8.01471400886E-02  8.25879838877E-02  8.51031624471E-02
  8.76949395974E-02  9.03656481129E-02  9.31176918116E-02  9.59535477186E-02
  9.88757682955E-02  1.01886983738E-01  1.04989904344E-01  1.08187322951E-01
  1.11482117451E-01  1.14877253382E-01  1.18375786595E-01  1.21980866008E-01
  1.25695736433E-01  1.29523741506E-01  1.33468326690E-01  1.37533042376E-01
  1.41721547085E-01  1.46037610753E-01  1.50485118128E-01  1.55068072268E-01
  1.59790598140E-01  1.64656946336E-01  1.69671496899E-01  1.74838763262E-01
  1.80163396314E-01  1.85650188585E-01  1.91304078556E-01  1.97130155112E-01
  2.03133662114E-01  2.09320003124E-01  2.15694746267E-01  2.22263629240E-01
  2.29032564484E-01  2.36007644495E-01  2.43195147318E-01  2.50601542189E-01
  2.58233495364E-01  2.66097876117E-01  2.74201762920E-01  2.82552449819E-01
  2.91157452996E-01  3.00024517534E-01  3.09161624390E-01  3.18576997577E-01
  3.28279111567E-01  3.38276698916E-01  3.48578758129E-01  3.59194561754E-01
  3.70133664731E-01  3.81405912990E-01  3.93021452318E-01  4.04990737482E-01
  4.17324541647E-01  4.30033966071E-01  4.43130450091E-01  4.56625781430E-01
  4.70532106794E-01  4.84861942817E-01  4.99628187317E-01  5.14844130912E-01
  5.30523468977E-01  5.46680313977E-01  5.63329208160E-01  5.80485136657E-01
  5.98163540961E-01  6.16380332829E-01  6.35151908603E-01  6.54495163970E-01
  6.74427509163E-01  6.94966884640E-01  7.16131777225E-01  7.37941236750E-01
  7.60414893200E-01  7.83572974384E-01  8.07436324137E-01  8.32026421086E-01
  8.57365397977E-01  8.83476061600E-01  9.10381913315E-01  9.38107170205E-01
  9.66676786872E-01  9.96116477900E-01  1.02645274100E+00  1.05771288085E+00
  1.08992503369E+00  1.12311819264E+00  1.15732223377E+00  1.19256794303E+00
  1.22888704395E+00  1.26631222615E+00  1.30487717484E+00  1.34461660106E+00
  1.38556627300E+00  1.42776304810E+00  1.47124490633E+00  1.51605098428E+00
  1.56222161046E+00  1.60979834154E+00  1.65882399979E+00  1.70934271161E+00
  1.76139994726E+00
  </PP_RAB>
</PP_MESH>


<PP_NLCC>
  2.47709800000E-02  2.47709800000E-02  2.47709800000E-02  2.47709800000E-02
  2.47709800000E-02  2.47709800000E-02  2.47709800000E-02  2.47709800000E-02
  2.47709800000E-02  2.47709800000E-02  2.47709800000E-02  2.47709800000E-02
  2.47709800000E-02  2.47709800000E-02  2.47709800000E-02  2.47709800000E-02
  2.47709800000E-02  2.47709800000E-02  2.47709800000E-02  2.47709800000E-02
  2.47709800000E-02  2.47709800000E-02  2.47709800000E-02  2.47709800000E-02
  2.47709800000E-02  2.47709800000E-02  2.47709800000E-02  2.47709800000E-02
  2.47709800000E-02  2.47709800000E-02  2.47709800000E-02  2.47709800000E-02
  2.47709800000E-02  2.47709800000E-02  2.47709800000E-02  2.47709800000E-02
  2.47709800000E-02  2.47709800000E-02  2.47709800000E-02  2.47709800000E-02
  2.47709800000E-02  2.47709800000E-02  2.47709800000E-02  2.47709800000E-02
  2.47709800000E-02  2.47709800000E-02  2.47709800000E-02  2.47709800000E-02
  2.47709800000E-02  2.47709800000E-02  2.47709800000E-02  2.47709800000E-02
  2.47709800000E-02  2.47709800000E-02  2.47709800000E-02  2.47709800000E-02
  2.47709800000E-02  2.47709800000E-02  2.47709800000E-02  2.47709800000E-02
  2.47709800000E-02  2.47709800000E-02  2.47709800000E-02  2.47709800000E-02
  2.47709800000E-02  2.47709800000E-02  2.47709800000E-02  2.47709800000E-02
  2.47709800000E-02  2.47709800000E-02  2.47709800000E-02  2.47709800000E-02
  2.47709800000E-02  2.47709800000E-02  2.47709800000E-02  2.47709800000E-02
  2.47709800000E-02  2.47709800000E-02  2.47709800000E-02  2.47709800000E-02
  2.47709790000E-02  2.47709790000E-02  2.47709790000E-02  2.47709790000E-02
  2.47709790000E-02  2.47709790000E-02  2.47709790000E-02  2.47709790000E-02
  2.47709790000E-02  2.47709790000E-02  2.47709790000E-02  2.47709790000E-02
  2.47709790000E-02  2.47709790000E-02  2.47709790000E-02  2.47709790000E-02
  2.47709790000E-02  2.47709790000E-02  2.47709790000E-02  2.47709790000E-02
  2.47709790000E-02  2.47709790000E-02  2.47709790000E-02  2.47709790000E-02
  2.47709790000E-02  2.47709790000E-02  2.47709790000E-02  2.47709790000E-02
  2.47709790000E-02  2.47709790000E-02  2.47709790000E-02  2.47709790000E-02
  2.47709790000E-02  2.47709790000E-02  2.47709790000E-02  2.47709790000E-02
  2.47709790000E-02  2.47709790000E-02  2.47709790000E-02  2.47709790000E-02
  2.47709790000E-02  2.47709790000E-02  2.47709790000E-02  2.47709790000E-02
  2.47709790000E-02  2.47709790000E-02  2.47709790000E-02  2.47709790000E-02
  2.47709790000E-02  2.47709790000E-02  2.47709790000E-02  2.47709790000E-02
  2.47709790000E-02  2.47709790000E-02  2.47709790000E-02  2.47709790000E-02
  2.47709790000E-02  2.47709790000E-02  2.47709790000E-02  2.47709790000E-02
  2.47709790000E-02  2.47709790000E-02  2.47709790000E-02  2.47709790000E-02
  2.47709790000E-02  2.47709790000E-02  2.47709790000E-02  2.47709790000E-02
  2.47709790000E-02  2.47709790000E-02  2.47709790000E-02  2.47709790000E-02
  2.47709790000E-02  2.47709790000E-02  2.47709790000E-02  2.47709780000E-02
  2.47709780000E-02  2.47709780000E-02  2.47709780000E-02  2.47709780000E-02
  2.47709780000E-02  2.47709780000E-02  2.47709780000E-02  2.47709780000E-02
  2.47709780000E-02  2.47709780000E-02  2.47709780000E-02  2.47709770000E-02
  2.47709770000E-02  2.47709770000E-02  2.47709770000E-02  2.47709770000E-02
  2.47709770000E-02  2.47709770000E-02  2.47709760000E-02  2.47709760000E-02
  2.47709760000E-02  2.47709760000E-02  2.47709750000E-02  2.47709750000E-02
  2.47709750000E-02  2.47709750000E-02  2.47709740000E-02  2.47709740000E-02
  2.47709740000E-02  2.47709730000E-02  2.47709730000E-02  2.47709730000E-02
  2.47709720000E-02  2.47709720000E-02  2.47709710000E-02  2.47709710000E-02
  2.47709700000E-02  2.47709700000E-02  2.47709690000E-02  2.47709680000E-02
  2.47709680000E-02  2.47709670000E-02  2.47709660000E-02  2.47709650000E-02
  2.47709640000E-02  2.47709630000E-02  2.47709620000E-02  2.47709610000E-02
  2.47709600000E-02  2.47709590000E-02  2.47709580000E-02  2.47709560000E-02
  2.47709550000E-02  2.47709530000E-02  2.47709520000E-02  2.47709500000E-02
  2.47709480000E-02  2.47709460000E-02  2.47709440000E-02  2.47709420000E-02
  2.47709400000E-02  2.47709370000E-02  2.47709350000E-02  2.47709320000E-02
  2.47709290000E-02  2.47709260000E-02  2.47709230000E-02  2.47709190000E-02
  2.47709150000E-02  2.47709110000E-02  2.47709070000E-02  2.47709030000E-02
  2.47708980000E-02  2.47708930000E-02  2.47708880000E-02  2.47708820000E-02
  2.47708760000E-02  2.47708690000E-02  2.47708630000E-02  2.47708550000E-02
  2.47708480000E-02  2.47708390000E-02  2.47708310000E-02  2.47708220000E-02
  2.47708120000E-02  2.47708010000E-02  2.47707900000E-02  2.47707790000E-02
  2.47707660000E-02  2.47707530000E-02  2.47707390000E-02  2.47707240000E-02
  2.47707090000E-02  2.47706920000E-02  2.47706740000E-02  2.47706550000E-02
  2.47706350000E-02  2.47706140000E-02  2.47705910000E-02  2.47705670000E-02
  2.47705420000E-02  2.47705150000E-02  2.47704860000E-02  2.47704550000E-02
  2.47704230000E-02  2.47703880000E-02  2.47703520000E-02  2.47703130000E-02
  2.47702720000E-02  2.47702280000E-02  2.47701820000E-02  2.47701320000E-02
  2.47700800000E-02  2.47700240000E-02  2.47699650000E-02  2.47699030000E-02
  2.47698360000E-02  2.47697650000E-02  2.47696900000E-02  2.47696110000E-02
  2.47695260000E-02  2.47694360000E-02  2.47693410000E-02  2.47692390000E-02
  2.47691320000E-02  2.47690170000E-02  2.47688960000E-02  2.47687670000E-02
  2.47686300000E-02  2.47684850000E-02  2.47683310000E-02  2.47681670000E-02
  2.47679930000E-02  2.47678080000E-02  2.47676120000E-02  2.47674040000E-02
  2.47671830000E-02  2.47669480000E-02  2.47666990000E-02  2.47664340000E-02
  2.47661530000E-02  2.47658550000E-02  2.47655380000E-02  2.47652020000E-02
  2.47648440000E-02  2.47644650000E-02  2.47640620000E-02  2.47636350000E-02
  2.47631800000E-02  2.47626980000E-02  2.47621860000E-02  2.47616420000E-02
  2.47610650000E-02  2.47604520000E-02  2.47598010000E-02  2.47591100000E-02
  2.47583760000E-02  2.47575970000E-02  2.47567700000E-02  2.47558910000E-02
  2.47549580000E-02  2.47539680000E-02  2.47529160000E-02  2.47517990000E-02
  2.47506140000E-02  2.47493550000E-02  2.47480180000E-02  2.47465980000E-02
  2.47450910000E-02  2.47434910000E-02  2.47417920000E-02  2.47399880000E-02
  2.47380720000E-02  2.47360380000E-02  2.47338780000E-02  2.47315850000E-02
  2.47291500000E-02  2.47265650000E-02  2.47238200000E-02  2.47209060000E-02
  2.47178120000E-02  2.47145260000E-02  2.47110380000E-02  2.47073340000E-02
  2.47034020000E-02  2.46992260000E-02  2.46947940000E-02  2.46900870000E-02
  2.46850900000E-02  2.46797850000E-02  2.46741520000E-02  2.46681720000E-02
  2.46618240000E-02  2.46550830000E-02  2.46479270000E-02  2.46403300000E-02
  2.46322650000E-02  2.46237030000E-02  2.46146130000E-02  2.46049630000E-02
  2.45947190000E-02  2.45838450000E-02  2.45723010000E-02  2.45600470000E-02
  2.45470390000E-02  2.45332310000E-02  2.45185750000E-02  2.45030180000E-02
  2.44865050000E-02  2.44689790000E-02  2.44503770000E-02  2.44306340000E-02
  2.44096810000E-02  2.43874430000E-02  2.43638440000E-02  2.43388010000E-02
  2.43122260000E-02  2.42840260000E-02  2.42541050000E-02  2.42223570000E-02
  2.41886730000E-02  2.41529370000E-02  2.41150250000E-02  2.40748080000E-02
  2.40321480000E-02  2.39868990000E-02  2.39389080000E-02  2.38880120000E-02
  2.38340390000E-02  2.37768080000E-02  2.37161280000E-02  2.36517960000E-02
  2.35836000000E-02  2.35113140000E-02  2.34347030000E-02  2.33535160000E-02
  2.32674910000E-02  2.31763520000E-02  2.30798090000E-02  2.29775560000E-02
  2.28692730000E-02  2.27546240000E-02  2.26332560000E-02  2.25048010000E-02
  2.23688710000E-02  2.22250630000E-02  2.20729570000E-02  2.19121110000E-02
  2.17420700000E-02  2.15623570000E-02  2.13724780000E-02  2.11719210000E-02