<PP_INFO>
Generated using "atomic" code by A. Dal Corso  (espresso distribution)     
Author: anonymous   Generation date:  3Jul2008                             
Cu                                                                         
    1        The Pseudo was generated with a Scalar-Relativistic Calculation
   -1 1.7000000E+00    L component and cutoff radius for Local Potential
nl pn  l   occ               Rcut            Rcut US             E pseu
4S  1  0  1.00      2.00000000000      2.50000000000     -0.33879677880
4S  1  0  0.00      2.00000000000      2.50000000000      0.10000000000
4P  2  1  0.00      2.40000000000      2.60000000000     -0.05122609258
4P  2  1  0.00      2.40000000000      2.60000000000      0.30000000000
3D  3  2 10.00      1.60000000000      2.50000000000     -0.37030562688
3D  3  2  0.00      1.60000000000      2.50000000000     -0.25000000000
</PP_INFO>


<PP_HEADER>
   0                   Version Number
  Cu                   Element
   US                  Ultrasoft pseudopotential
    T                  Nonlinear Core Correction
 SLA  PW   PBX  PBC    PBE  Exchange-Correlation functional
   11.00000000000      Z valence
 -108.00586871048      Total energy
     26.865      0.000 Suggested cutoff for wfc and rho
    2                  Max angular momentum component
 1199                  Number of points in mesh
    6    6             Number of Wavefunctions, Number of Projectors
 Wavefunctions         nl  l   occ
                       4S  0  1.00
                       5S  0  0.00
                       4P  1  0.00
                       5P  1  0.00
                       3D  2 10.00
                       4D  2  0.00
</PP_HEADER>


<PP_MESH>
  <PP_R>
  3.14442057088E-05  3.18397251265E-05  3.22402195661E-05  3.26457516056E-05
  3.30563846101E-05  3.34721827421E-05  3.38932109706E-05  3.43195350824E-05
  3.47512216913E-05  3.51883382494E-05  3.56309530568E-05  3.60791352732E-05
  3.65329549278E-05  3.69924829310E-05  3.74577910850E-05  3.79289520949E-05
  3.84060395809E-05  3.88891280886E-05  3.93782931017E-05  3.98736110532E-05
  4.03751593376E-05  4.08830163228E-05  4.13972613625E-05  4.19179748084E-05
  4.24452380232E-05  4.29791333928E-05  4.35197443395E-05  4.40671553347E-05
  4.46214519126E-05  4.51827206832E-05  4.57510493458E-05  4.63265267029E-05
  4.69092426741E-05  4.74992883098E-05  4.80967558061E-05  4.87017385182E-05
  4.93143309761E-05  4.99346288986E-05  5.05627292084E-05  5.11987300475E-05
  5.18427307923E-05  5.24948320693E-05  5.31551357707E-05  5.38237450701E-05
  5.45007644392E-05  5.51862996636E-05  5.58804578596E-05  5.65833474909E-05
  5.72950783853E-05  5.80157617523E-05  5.87455102001E-05  5.94844377534E-05
  6.02326598711E-05  6.09902934644E-05  6.17574569152E-05  6.25342700943E-05
  6.33208543803E-05  6.41173326786E-05  6.49238294407E-05  6.57404706831E-05
  6.65673840079E-05  6.74046986218E-05  6.82525453570E-05  6.91110566913E-05
  6.99803667688E-05  7.08606114210E-05  7.17519281879E-05  7.26544563396E-05
  7.35683368979E-05  7.44937126584E-05  7.54307282132E-05  7.63795299727E-05
  7.73402661892E-05  7.83130869796E-05  7.92981443491E-05  8.02955922151E-05
  8.13055864307E-05  8.23282848096E-05  8.33638471505E-05  8.44124352621E-05
  8.54742129885E-05  8.65493462345E-05  8.76380029920E-05  8.87403533658E-05
  8.98565696003E-05  9.09868261066E-05  9.21312994896E-05  9.32901685756E-05
  9.44636144403E-05  9.56518204369E-05  9.68549722250E-05  9.80732577996E-05
  9.93068675203E-05  1.00555994141E-04  1.01820832840E-04  1.03101581252E-04
  1.04398439496E-04  1.05711610208E-04  1.07041298574E-04  1.08387712361E-04
  1.09751061949E-04  1.11131560363E-04  1.12529423310E-04  1.13944869208E-04
  1.15378119223E-04  1.16829397305E-04  1.18298930217E-04  1.19786947578E-04
  1.21293681894E-04  1.22819368593E-04  1.24364246070E-04  1.25928555712E-04
  1.27512541948E-04  1.29116452277E-04  1.30740537315E-04  1.32385050828E-04
  1.34050249775E-04  1.35736394346E-04  1.37443748004E-04  1.39172577528E-04
  1.40923153050E-04  1.42695748102E-04  1.44490639655E-04  1.46308108164E-04
  1.48148437612E-04  1.50011915555E-04  1.51898833166E-04  1.53809485278E-04
  1.55744170435E-04  1.57703190935E-04  1.59686852880E-04  1.61695466221E-04
  1.63729344807E-04  1.65788806437E-04  1.67874172904E-04  1.69985770053E-04
  1.72123927824E-04  1.74288980310E-04  1.76481265803E-04  1.78701126852E-04
  1.80948910317E-04  1.83224967416E-04  1.85529653790E-04  1.87863329550E-04
  1.90226359337E-04  1.92619112379E-04  1.95041962550E-04  1.97495288424E-04
  1.99979473339E-04  2.02494905454E-04  2.05041977809E-04  2.07621088391E-04
  2.10232640190E-04  2.12877041267E-04  2.15554704815E-04  2.18266049224E-04
  2.21011498147E-04  2.23791480566E-04  2.26606430860E-04  2.29456788869E-04
  2.32342999968E-04  2.35265515134E-04  2.38224791016E-04  2.41221290005E-04
  2.44255480312E-04  2.47327836035E-04  2.50438837235E-04  2.53588970013E-04
  2.56778726584E-04  2.60008605353E-04  2.63279110995E-04  2.66590754534E-04
  2.69944053422E-04  2.73339531616E-04  2.76777719669E-04  2.80259154803E-04
  2.83784381001E-04  2.87353949085E-04  2.90968416809E-04  2.94628348939E-04
  2.98334317349E-04  3.02086901103E-04  3.05886686549E-04  3.09734267413E-04
  3.13630244886E-04  3.17575227723E-04  3.21569832335E-04  3.25614682888E-04
  3.29710411398E-04  3.33857657830E-04  3.38057070201E-04  3.42309304676E-04
  3.46615025677E-04  3.50974905981E-04  3.55389626828E-04  3.59859878027E-04
  3.64386358064E-04  3.68969774211E-04  3.73610842636E-04  3.78310288515E-04
  3.83068846146E-04  3.87887259064E-04  3.92766280156E-04  3.97706671777E-04
  4.02709205876E-04  4.07774664107E-04  4.12903837959E-04  4.18097528875E-04
  4.23356548382E-04  4.28681718210E-04  4.34073870429E-04  4.39533847573E-04
  4.45062502775E-04  4.50660699899E-04  4.56329313674E-04  4.62069229832E-04
  4.67881345248E-04  4.73766568076E-04  4.79725817894E-04  4.85760025848E-04
  4.91870134793E-04  4.98057099448E-04  5.04321886538E-04  5.10665474948E-04
  5.17088855879E-04  5.23593032994E-04  5.30179022587E-04  5.36847853730E-04
  5.43600568443E-04  5.50438221851E-04  5.57361882351E-04  5.64372631778E-04
  5.71471565578E-04  5.78659792972E-04  5.85938437137E-04  5.93308635374E-04
  6.00771539293E-04  6.08328314987E-04  6.15980143218E-04  6.23728219599E-04
  6.31573754784E-04  6.39517974653E-04  6.47562120506E-04  6.55707449259E-04
  6.63955233634E-04  6.72306762365E-04  6.80763340396E-04  6.89326289084E-04
  6.97996946407E-04  7.06776667173E-04  7.15666823231E-04  7.24668803686E-04
  7.33784015116E-04  7.43013881792E-04  7.52359845898E-04  7.61823367761E-04
  7.71405926075E-04  7.81109018134E-04  7.90934160067E-04  8.00882887071E-04
  8.10956753655E-04  8.21157333883E-04  8.31486221614E-04  8.41945030760E-04
  8.52535395529E-04  8.63258970688E-04  8.74117431818E-04  8.85112475575E-04
  8.96245819957E-04  9.07519204572E-04  9.18934390909E-04  9.30493162614E-04
  9.42197325769E-04  9.54048709173E-04  9.66049164628E-04  9.78200567231E-04
  9.90504815663E-04  1.00296383249E-03  1.01557956445E-03  1.02835398279E-03
  1.04128908353E-03  1.05438688781E-03  1.06764944218E-03  1.08107881895E-03
  1.09467711649E-03  1.10844645955E-03  1.12238899962E-03  1.13650691527E-03
  1.15080241243E-03  1.16527772480E-03  1.17993511420E-03  1.19477687085E-03
  1.20980531382E-03  1.22502279134E-03  1.24043168115E-03  1.25603439094E-03
  1.27183335866E-03  1.28783105293E-03  1.30402997343E-03  1.32043265125E-03
  1.33704164937E-03  1.35385956296E-03  1.37088901987E-03  1.38813268097E-03
  1.40559324063E-03  1.42327342710E-03  1.44117600293E-03  1.45930376544E-03
  1.47765954714E-03  1.49624621615E-03  1.51506667667E-03  1.53412386944E-03
  1.55342077219E-03  1.57296040010E-03  1.59274580626E-03  1.61278008221E-03
  1.63306635832E-03  1.65360780437E-03  1.67440763000E-03  1.69546908523E-03
  1.71679546096E-03  1.73839008947E-03  1.76025634497E-03  1.78239764411E-03
  1.80481744650E-03  1.82751925529E-03  1.85050661768E-03  1.87378312550E-03
  1.89735241574E-03  1.92121817116E-03  1.94538412082E-03  1.96985404071E-03
  1.99463175430E-03  2.01972113317E-03  2.04512609757E-03  2.07085061708E-03
  2.09689871121E-03  2.12327445004E-03  2.14998195482E-03  2.17702539865E-03
  2.20440900713E-03  2.23213705900E-03  2.26021388683E-03  2.28864387768E-03
  2.31743147378E-03  2.34658117328E-03  2.37609753085E-03  2.40598515850E-03
  2.43624872622E-03  2.46689296277E-03  2.49792265635E-03  2.52934265544E-03
  2.56115786946E-03  2.59337326961E-03  2.62599388961E-03  2.65902482649E-03
  2.69247124142E-03  2.72633836045E-03  2.76063147540E-03  2.79535594464E-03
  2.83051719393E-03  2.86612071729E-03  2.90217207784E-03  2.93867690868E-03
  2.97564091377E-03  3.01306986881E-03  3.05096962214E-03  3.08934609568E-03
  3.12820528584E-03  3.16755326444E-03  3.20739617968E-03  3.24774025710E-03
  3.28859180054E-03  3.32995719314E-03  3.37184289832E-03  3.41425546082E-03
  3.45720150768E-03  3.50068774931E-03  3.54472098053E-03  3.58930808161E-03
  3.63445601937E-03  3.68017184829E-03  3.72646271155E-03  3.77333584218E-03
  3.82079856422E-03  3.86885829380E-03  3.91752254037E-03  3.96679890780E-03
  4.01669509564E-03  4.06721890025E-03  4.11837821609E-03  4.17018103691E-03
  4.22263545700E-03  4.27574967247E-03  4.32953198252E-03  4.38399079076E-03
  4.43913460648E-03  4.49497204601E-03  4.55151183406E-03  4.60876280510E-03
  4.66673390471E-03  4.72543419098E-03  4.78487283596E-03  4.84505912706E-03
  4.90600246850E-03  4.96771238281E-03  5.03019851228E-03  5.09347062051E-03
  5.15753859388E-03  5.22241244316E-03  5.28810230500E-03  5.35461844358E-03
  5.42197125219E-03  5.49017125484E-03  5.55922910792E-03  5.62915560186E-03
  5.69996166281E-03  5.77165835437E-03  5.84425687929E-03  5.91776858124E-03
  5.99220494657E-03  6.06757760611E-03  6.14389833700E-03  6.22117906450E-03
  6.29943186389E-03  6.37866896232E-03  6.45890274076E-03  6.54014573589E-03
  6.62241064209E-03  6.70571031344E-03  6.79005776566E-03  6.87546617823E-03
  6.96194889637E-03  7.04951943319E-03  7.13819147176E-03  7.22797886728E-03
  7.31889564920E-03  7.41095602345E-03  7.50417437466E-03  7.59856526839E-03
  7.69414345339E-03  7.79092386397E-03  7.88892162225E-03  7.98815204058E-03
  8.08863062392E-03  8.19037307226E-03  8.29339528305E-03  8.39771335372E-03
  8.50334358419E-03  8.61030247940E-03  8.71860675189E-03  8.82827332442E-03
  8.93931933262E-03  9.05176212765E-03  9.16561927893E-03  9.28090857687E-03
  9.39764803566E-03  9.51585589607E-03  9.63555062832E-03  9.75675093497E-03
  9.87947575380E-03  1.00037442608E-02  1.01295758732E-02  1.02569902525E-02
  1.03860073073E-02  1.05166471969E-02  1.06489303341E-02  1.07828773882E-02
  1.09185092889E-02  1.10558472289E-02  1.11949126675E-02  1.13357273340E-02
  1.14783132310E-02  1.16226926377E-02  1.17688881138E-02  1.19169225027E-02
  1.20668189349E-02  1.22186008321E-02  1.23722919106E-02  1.25279161848E-02
  1.26854979714E-02  1.28450618929E-02  1.30066328815E-02  1.31702361829E-02
  1.33358973605E-02  1.35036422992E-02  1.36734972095E-02  1.38454886315E-02
  1.40196434393E-02  1.41959888449E-02  1.43745524027E-02  1.45553620135E-02
  1.47384459293E-02  1.49238327572E-02  1.51115514643E-02  1.53016313821E-02
  1.54941022109E-02  1.56889940248E-02  1.58863372758E-02  1.60861627994E-02
  1.62885018187E-02  1.64933859495E-02  1.67008472054E-02  1.69109180026E-02
  1.71236311652E-02  1.73390199300E-02  1.75571179520E-02  1.77779593093E-02
  1.80015785090E-02  1.82280104919E-02  1.84572906386E-02  1.86894547745E-02
  1.89245391757E-02  1.91625805746E-02  1.94036161658E-02  1.96476836114E-02
  1.98948210476E-02  2.01450670901E-02  2.03984608402E-02  2.06550418914E-02
  2.09148503349E-02  2.11779267663E-02  2.14443122919E-02  2.17140485349E-02
  2.19871776421E-02  2.22637422906E-02  2.25437856941E-02  2.28273516100E-02
  2.31144843461E-02  2.34052287673E-02  2.36996303031E-02  2.39977349544E-02
  2.42995893006E-02  2.46052405071E-02  2.49147363325E-02  2.52281251361E-02
  2.55454558856E-02  2.58667781645E-02  2.61921421802E-02  2.65215987713E-02
  2.68551994163E-02  2.71929962407E-02  2.75350420262E-02  2.78813902180E-02
  2.82320949337E-02  2.85872109717E-02  2.89467938196E-02  2.93108996629E-02
  2.96795853940E-02  3.00529086206E-02  3.04309276753E-02  3.08137016244E-02
  3.12012902771E-02  3.15937541949E-02  3.19911547010E-02  3.23935538901E-02
  3.28010146380E-02  3.32136006111E-02  3.36313762768E-02  3.40544069136E-02
  3.44827586207E-02  3.49164983290E-02  3.53556938112E-02  3.58004136925E-02
  3.62507274612E-02  3.67067054799E-02  3.71684189960E-02  3.76359401532E-02
  3.81093420026E-02  3.85886985142E-02  3.90740845885E-02  3.95655760680E-02
  4.00632497493E-02  4.05671833948E-02  4.10774557453E-02  4.15941465318E-02
  4.21173364883E-02  4.26471073643E-02  4.31835419377E-02  4.37267240273E-02
  4.42767385065E-02  4.48336713162E-02  4.53976094782E-02  4.59686411091E-02
  4.65468554337E-02  4.71323427991E-02  4.77251946890E-02  4.83255037377E-02
  4.89333637446E-02  4.95488696892E-02  5.01721177455E-02  5.08032052972E-02
  5.14422309531E-02  5.20892945623E-02  5.27444972298E-02  5.34079413322E-02
  5.40797305341E-02  5.47599698040E-02  5.54487654305E-02  5.61462250395E-02
  5.68524576103E-02  5.75675734934E-02  5.82916844269E-02  5.90249035547E-02
  5.97673454437E-02  6.05191261021E-02  6.12803629970E-02  6.20511750734E-02
  6.28316827721E-02  6.36220080491E-02  6.44222743942E-02  6.52326068508E-02
  6.60531320350E-02  6.68839781554E-02  6.77252750334E-02  6.85771541235E-02
  6.94397485335E-02  7.03131930454E-02  7.11976241368E-02  7.20931800018E-02
  7.30000005729E-02  7.39182275425E-02  7.48480043856E-02  7.57894763817E-02
  7.67427906377E-02  7.77080961108E-02  7.86855436320E-02  7.96752859296E-02
  8.06774776526E-02  8.16922753957E-02  8.27198377230E-02  8.37603251933E-02
  8.48139003847E-02  8.58807279207E-02  8.69609744951E-02  8.80548088987E-02
  8.91624020454E-02  9.02839269987E-02  9.14195589994E-02  9.25694754921E-02
  9.37338561538E-02  9.49128829211E-02  9.61067400195E-02  9.73156139916E-02
  9.85396937263E-02  9.97791704887E-02  1.01034237949E-01  1.02305092215E-01
  1.03591931860E-01  1.04894957955E-01  1.06214374101E-01  1.07550386458E-01
  1.08903203782E-01  1.10273037454E-01  1.11660101512E-01  1.13064612688E-01
  1.14486790439E-01  1.15926856985E-01  1.17385037338E-01  1.18861559341E-01
  1.20356653706E-01  1.21870554042E-01  1.23403496900E-01  1.24955721806E-01
  1.26527471297E-01  1.28118990963E-01  1.29730529483E-01  1.31362338661E-01
  1.33014673472E-01  1.34687792097E-01  1.36381955963E-01  1.38097429787E-01
  1.39834481615E-01  1.41593382866E-01  1.43374408371E-01  1.45177836419E-01
  1.47003948799E-01  1.48853030845E-01  1.50725371480E-01  1.52621263261E-01
  1.54541002425E-01  1.56484888936E-01  1.58453226528E-01  1.60446322759E-01
  1.62464489055E-01  1.64508040758E-01  1.66577297176E-01  1.68672581637E-01
  1.70794221531E-01  1.72942548370E-01  1.75117897834E-01  1.77320609826E-01
  1.79551028523E-01  1.81809502435E-01  1.84096384451E-01  1.86412031901E-01
  1.88756806611E-01  1.91131074956E-01  1.93535207920E-01  1.95969581155E-01
  1.98434575035E-01  2.00930574721E-01  2.03457970218E-01  2.06017156437E-01
  2.08608533256E-01  2.11232505582E-01  2.13889483417E-01  2.16579881920E-01
  2.19304121469E-01  2.22062627734E-01  2.24855831736E-01  2.27684169919E-01
  2.30548084217E-01  2.33448022122E-01  2.36384436755E-01  2.39357786938E-01
  2.42368537262E-01  2.45417158163E-01  2.48504125994E-01  2.51629923100E-01
  2.54795037894E-01  2.57999964931E-01  2.61245204987E-01  2.64531265139E-01
  2.67858658838E-01  2.71227905998E-01  2.74639533070E-01  2.78094073128E-01
  2.81592065951E-01  2.85134058106E-01  2.88720603039E-01  2.92352261153E-01
  2.96029599903E-01  2.99753193880E-01  3.03523624903E-01  3.07341482110E-01
  3.11207362049E-01  3.15121868772E-01  3.19085613928E-01  3.23099216860E-01
  3.27163304702E-01  3.31278512476E-01  3.35445483192E-01  3.39664867947E-01
  3.43937326028E-01  3.48263525017E-01  3.52644140889E-01  3.57079858127E-01
  3.61571369818E-01  3.66119377772E-01  3.70724592623E-01  3.75387733947E-01
  3.80109530367E-01  3.84890719675E-01  3.89732048941E-01  3.94634274632E-01
  3.99598162732E-01  4.04624488857E-01  4.09714038383E-01  4.14867606560E-01
  4.20085998645E-01  4.25370030022E-01  4.30720526331E-01  4.36138323599E-01
  4.41624268368E-01  4.47179217827E-01  4.52804039948E-01  4.58499613622E-01
  4.64266828793E-01  4.70106586601E-01  4.76019799520E-01  4.82007391500E-01
  4.88070298116E-01  4.94209466710E-01  5.00425856538E-01  5.06720438924E-01
  5.13094197409E-01  5.19548127907E-01  5.26083238857E-01  5.32700551384E-01
  5.39401099455E-01  5.46185930045E-01  5.53056103298E-01  5.60012692693E-01
  5.67056785210E-01  5.74189481504E-01  5.81411896072E-01  5.88725157432E-01
  5.96130408295E-01  6.03628805748E-01  6.11221521430E-01  6.18909741718E-01
  6.26694667912E-01  6.34577516423E-01  6.42559518962E-01  6.50641922733E-01
  6.58825990629E-01  6.67113001426E-01  6.75504249986E-01  6.84001047460E-01
  6.92604721489E-01  7.01316616415E-01  7.10138093490E-01  7.19070531086E-01
  7.28115324915E-01  7.37273888246E-01  7.46547652121E-01  7.55938065586E-01
  7.65446595912E-01  7.75074728825E-01  7.84823968742E-01  7.94695839001E-01
  8.04691882101E-01  8.14813659946E-01  8.25062754082E-01  8.35440765952E-01
  8.45949317142E-01  8.56590049633E-01  8.67364626063E-01  8.78274729980E-01
  8.89322066110E-01  9.00508360623E-01  9.11835361399E-01  9.23304838305E-01
  9.34918583471E-01  9.46678411568E-01  9.58586160092E-01  9.70643689654E-01
  9.82852884268E-01  9.95215651644E-01  1.00773392349E+00  1.02040965581E+00
  1.03324482922E+00  1.04624144923E+00  1.05940154660E+00  1.07272717762E+00
  1.08622042444E+00  1.09988339541E+00  1.11371822540E+00  1.12772707613E+00
  1.14191213651E+00  1.15627562298E+00  1.17081977987E+00  1.18554687973E+00
  1.20045922371E+00  1.21555914188E+00  1.23084899364E+00  1.24633116806E+00
  1.26200808426E+00  1.27788219180E+00  1.29395597102E+00  1.31023193350E+00
  1.32671262238E+00  1.34340061281E+00  1.36029851232E+00  1.37740896124E+00
  1.39473463311E+00  1.41227823510E+00  1.43004250844E+00  1.44803022884E+00
  1.46624420690E+00  1.48468728860E+00  1.50336235571E+00  1.52227232625E+00
  1.54142015494E+00  1.56080883366E+00  1.58044139194E+00  1.60032089740E+00
  1.62045045626E+00  1.64083321380E+00  1.66147235487E+00  1.68237110437E+00
  1.70353272778E+00  1.72496053164E+00  1.74665786410E+00  1.76862811540E+00
  1.79087471844E+00  1.81340114930E+00  1.83621092778E+00  1.85930761796E+00
  1.88269482873E+00  1.90637621440E+00  1.93035547523E+00  1.95463635803E+00
  1.97922265674E+00  2.00411821302E+00  2.02932691684E+00  2.05485270712E+00
  2.08069957232E+00  2.10687155106E+00  2.13337273277E+00  2.16020725831E+00
  2.18737932062E+00  2.21489316541E+00  2.24275309176E+00  2.27096345284E+00
  2.29952865658E+00  2.32845316636E+00  2.35774150167E+00  2.38739823890E+00
  2.41742801195E+00  2.44783551306E+00  2.47862549344E+00  2.50980276409E+00
  2.54137219654E+00  2.57333872356E+00  2.60570733999E+00  2.63848310350E+00
  2.67167113535E+00  2.70527662126E+00  2.73930481215E+00  2.77376102498E+00
  2.80865064362E+00  2.84397911963E+00  2.87975197317E+00  2.91597479382E+00
  2.95265324146E+00  2.98979304717E+00  3.02740001413E+00  3.06548001850E+00
  3.10403901036E+00  3.14308301463E+00  3.18261813202E+00  3.22265053997E+00
  3.26318649362E+00  3.30423232680E+00  3.34579445300E+00  3.38787936639E+00
  3.43049364283E+00  3.47364394087E+00  3.51733700285E+00  3.56157965589E+00
  3.60637881300E+00  3.65174147414E+00  3.69767472731E+00  3.74418574968E+00
  3.79128180869E+00  3.83897026320E+00  3.88725856462E+00  3.93615425810E+00
  3.98566498370E+00  4.03579847755E+00  4.08656257313E+00  4.13796520242E+00
  4.19001439720E+00  4.24271829025E+00  4.29608511666E+00  4.35012321512E+00
  4.40484102917E+00  4.46024710860E+00  4.51635011072E+00  4.57315880173E+00
  4.63068205810E+00  4.68892886797E+00  4.74790833251E+00  4.80762966739E+00
  4.86810220419E+00  4.92933539186E+00  4.99133879821E+00  5.05412211141E+00
  5.11769514147E+00  5.18206782180E+00  5.24725021078E+00  5.31325249328E+00
  5.38008498229E+00  5.44775812052E+00  5.51628248205E+00  5.58566877393E+00
  5.65592783793E+00  5.72707065215E+00  5.79910833282E+00  5.87205213597E+00
  5.94591345920E+00  6.02070384351E+00  6.09643497505E+00  6.17311868695E+00
  6.25076696121E+00  6.32939193053E+00  6.40900588021E+00  6.48962125009E+00
  6.57125063650E+00  6.65390679420E+00  6.73760263836E+00  6.82235124665E+00
  6.90816586120E+00  6.99505989072E+00  7.08304691258E+00  7.17214067493E+00
  7.26235509885E+00  7.35370428053E+00  7.44620249347E+00  7.53986419070E+00
  7.63470400704E+00  7.73073676142E+00  7.82797745915E+00  7.92644129428E+00
  8.02614365199E+00  8.12710011097E+00  8.22932644588E+00  8.33283862980E+00
  8.43765283670E+00  8.54378544402E+00  8.65125303520E+00  8.76007240227E+00
  8.87026054847E+00  8.98183469094E+00  9.09481226334E+00  9.20921091867E+00
  9.32504853194E+00  9.44234320301E+00  9.56111325942E+00  9.68137725923E+00
  9.80315399393E+00  9.92646249139E+00  1.00513220188E+01  1.01777520857E+01
  1.03057724471E+01  1.04354031065E+01  1.05666643187E+01  1.06995765938E+01
  1.08341606995E+01  1.09704376648E+01  1.11084287834E+01  1.12481556165E+01
  1.13896399969E+01  1.15329040317E+01  1.16779701061E+01  1.18248608872E+01
  1.19735993269E+01  1.21242086658E+01  1.22767124369E+01  1.24311344694E+01
  1.25874988919E+01  1.27458301367E+01  1.29061529435E+01  1.30684923628E+01
  1.32328737607E+01  1.33993228221E+01  1.35678655549E+01  1.37385282943E+01
  1.39113377066E+01  1.40863207939E+01  1.42635048973E+01  1.44429177025E+01
  1.46245872429E+01  1.48085419049E+01  1.49948104316E+01  1.51834219280E+01
  1.53744058649E+01  1.55677920841E+01  1.57636108024E+01  1.59618926170E+01
  1.61626685097E+01  1.63659698524E+01  1.65718284111E+01  1.67802763517E+01
  1.69913462446E+01  1.72050710699E+01  1.74214842226E+01  1.76406195177E+01
  1.78625111955E+01  1.80871939269E+01  1.83147028192E+01  1.85450734211E+01
  1.87783417285E+01  1.90145441899E+01  1.92537177126E+01  1.94958996678E+01
  1.97411278970E+01  1.99894407176E+01  2.02408769290E+01  2.04954758186E+01
  2.07532771680E+01  2.10143212592E+01  2.12786488808E+01  2.15463013346E+01
  2.18173204418E+01  2.20917485497E+01  2.23696285383E+01  2.26510038269E+01
  2.29359183808E+01  2.32244167187E+01  2.35165439190E+01  2.38123456271E+01
  2.41118680626E+01  2.44151580266E+01  2.47222629087E+01  2.50332306947E+01
  2.53481099739E+01  2.56669499468E+01  2.59898004329E+01  2.63167118782E+01
  2.66477353633E+01  2.69829226112E+01  2.73223259957E+01  2.76659985492E+01
  2.80139939713E+01  2.83663666369E+01  2.87231716050E+01  2.90844646272E+01
  2.94503021561E+01  2.98207413546E+01  3.01958401046E+01  3.05756570161E+01
  3.09602514362E+01  3.13496834586E+01  3.17440139328E+01  3.21433044738E+01
  3.25476174714E+01  3.29570161006E+01  3.33715643305E+01  3.37913269353E+01
  3.42163695036E+01  3.46467584493E+01  3.50825610215E+01  3.55238453152E+01
  3.59706802821E+01  3.64231357409E+01  3.68812823888E+01  3.73451918120E+01
  3.78149364975E+01  3.82905898438E+01  3.87722261726E+01  3.92599207406E+01
  3.97537497512E+01  4.02537903660E+01  4.07601207174E+01  4.12728199206E+01
  4.17919680860E+01  4.23176463313E+01  4.28499367950E+01  4.33889226485E+01
  4.39346881094E+01  4.44873184548E+01  4.50469000341E+01  4.56135202833E+01
  4.61872677377E+01  4.67682320468E+01  4.73565039872E+01  4.79521754778E+01
  4.85553395933E+01  4.91660905794E+01  4.97845238672E+01  5.04107360881E+01
  5.10448250891E+01  5.16868899479E+01  5.23370309884E+01  5.29953497965E+01
  5.36619492358E+01  5.43369334638E+01  5.50204079482E+01  5.57124794834E+01
  5.64132562068E+01  5.71228476162E+01  5.78413645868E+01  5.85689193883E+01
  5.93056257026E+01  6.00515986416E+01  6.08069547651E+01  6.15718120989E+01
  6.23462901537E+01  6.31305099431E+01  6.39245940031E+01  6.47286664111E+01
  6.55428528048E+01  6.63672804027E+01  6.72020780231E+01  6.80473761049E+01
  6.89033067277E+01  6.97700036324E+01  7.06476022421E+01  7.15362396833E+01
  7.24360548076E+01  7.33471882128E+01  7.42697822654E+01  7.52039811225E+01
  7.61499307547E+01  7.71077789686E+01  7.80776754297E+01  7.90597716865E+01
  8.00542211935E+01  8.10611793354E+01  8.20808034515E+01  8.31132528601E+01
  8.41586888836E+01  8.52172748734E+01  8.62891762359E+01  8.73745604576E+01
  8.84735971322E+01  8.95864579864E+01  9.07133169069E+01  9.18543499677E+01
  9.30097354575E+01  9.41796539078E+01  9.53642881206E+01  9.65638231974E+01
  9.77784465681E+01  9.90083480200E+01  1.00253719728E+02
  </PP_R>
  <PP_RAB>
  3.93052571360E-07  3.97996564081E-07  4.03002744576E-07  4.08071895070E-07
  4.13204807627E-07  4.18402284276E-07  4.23665137133E-07  4.28994188530E-07
  4.34390271142E-07  4.39854228117E-07  4.45386913210E-07  4.50989190915E-07
  4.56661936598E-07  4.62406036638E-07  4.68222388562E-07  4.74111901187E-07
  4.80075494761E-07  4.86114101107E-07  4.92228663771E-07  4.98420138166E-07
  5.04689491720E-07  5.11037704035E-07  5.17465767031E-07  5.23974685105E-07
  5.30565475290E-07  5.37239167410E-07  5.43996804243E-07  5.50839441684E-07
  5.57768148908E-07  5.64784008540E-07  5.71888116822E-07  5.79081583786E-07
  5.86365533426E-07  5.93741103873E-07  6.01209447576E-07  6.08771731478E-07
  6.16429137202E-07  6.24182861232E-07  6.32034115105E-07  6.39984125594E-07
  6.48034134904E-07  6.56185400867E-07  6.64439197133E-07  6.72796813376E-07
  6.81259555490E-07  6.89828745795E-07  6.98505723245E-07  7.07291843636E-07
  7.16188479816E-07  7.25197021904E-07  7.34318877501E-07  7.43555471917E-07
  7.52908248388E-07  7.62378668305E-07  7.71968211440E-07  7.81678376179E-07
  7.91510679754E-07  8.01466658483E-07  8.11547868008E-07  8.21755883539E-07
  8.32092300098E-07  8.42558732772E-07  8.53156816963E-07  8.63888208641E-07
  8.74754584610E-07  8.85757642763E-07  8.96899102349E-07  9.08180704245E-07
  9.19604211223E-07  9.31171408231E-07  9.42884102665E-07  9.54744124659E-07
  9.66753327365E-07  9.78913587245E-07  9.91226804364E-07  1.00369490269E-06
  1.01631983038E-06  1.02910356012E-06  1.04204808938E-06  1.05515544078E-06
  1.06842766236E-06  1.08186682793E-06  1.09547503740E-06  1.10925441707E-06
  1.12320712000E-06  1.13733532633E-06  1.15164124362E-06  1.16612710720E-06
  1.18079518050E-06  1.19564775546E-06  1.21068715281E-06  1.22591572250E-06
  1.24133584400E-06  1.25694992676E-06  1.27276041051E-06  1.28876976565E-06
  1.30498049370E-06  1.32139512760E-06  1.33801623218E-06  1.35484640451E-06
  1.37188827436E-06  1.38914450454E-06  1.40661779137E-06  1.42431086509E-06
  1.44222649029E-06  1.46036746631E-06  1.47873662771E-06  1.49733684473E-06
  1.51617102367E-06  1.53524210742E-06  1.55455307587E-06  1.57410694640E-06
  1.59390677435E-06  1.61395565347E-06  1.63425671644E-06  1.65481313536E-06
  1.67562812219E-06  1.69670492932E-06  1.71804685006E-06  1.73965721910E-06
  1.76153941313E-06  1.78369685128E-06  1.80613299568E-06  1.82885135205E-06
  1.85185547015E-06  1.87514894444E-06  1.89873541457E-06  1.92261856597E-06
  1.94680213044E-06  1.97128988669E-06  1.99608566101E-06  2.02119332776E-06
  2.04661681009E-06  2.07236008046E-06  2.09842716131E-06  2.12482212567E-06
  2.15154909781E-06  2.17861225387E-06  2.20601582253E-06  2.23376408565E-06
  2.26186137896E-06  2.29031209270E-06  2.31912067238E-06  2.34829161937E-06
  2.37782949171E-06  2.40773890474E-06  2.43802453188E-06  2.46869110531E-06
  2.49974341674E-06  2.53118631817E-06  2.56302472262E-06  2.59526360489E-06
  2.62790800238E-06  2.66096301584E-06  2.69443381018E-06  2.72832561530E-06
  2.76264372683E-06  2.79739350708E-06  2.83258038575E-06  2.86820986086E-06
  2.90428749961E-06  2.94081893918E-06  2.97780988770E-06  3.01526612507E-06
  3.05319350390E-06  3.09159795043E-06  3.13048546544E-06  3.16986212516E-06
  3.20973408229E-06  3.25010756691E-06  3.29098888744E-06  3.33238443168E-06
  3.37430066777E-06  3.41674414520E-06  3.45972149586E-06  3.50323943504E-06
  3.54730476251E-06  3.59192436356E-06  3.63710521011E-06  3.68285436174E-06
  3.72917896686E-06  3.77608626378E-06  3.82358358187E-06  3.87167834266E-06
  3.92037806108E-06  3.96969034654E-06  4.01962290419E-06  4.07018353611E-06
  4.12138014248E-06  4.17322072288E-06  4.22571337751E-06  4.27886630845E-06
  4.33268782096E-06  4.38718632476E-06  4.44237033535E-06  4.49824847533E-06
  4.55482947580E-06  4.61212217764E-06  4.67013553295E-06  4.72887860644E-06
  4.78836057683E-06  4.84859073830E-06  4.90957850195E-06  4.97133339722E-06
  5.03386507345E-06  5.09718330133E-06  5.16129797448E-06  5.22621911094E-06
  5.29195685477E-06  5.35852147762E-06  5.42592338036E-06  5.49417309466E-06
  5.56328128469E-06  5.63325874874E-06  5.70411642092E-06  5.77586537291E-06
  5.84851681560E-06  5.92208210095E-06  5.99657272368E-06  6.07200032309E-06
  6.14837668491E-06  6.22571374310E-06  6.30402358172E-06  6.38331843686E-06
  6.46361069848E-06  6.54491291243E-06  6.62723778234E-06  6.71059817163E-06
  6.79500710554E-06  6.88047777314E-06  6.96702352938E-06  7.05465789723E-06
  7.14339456972E-06  7.23324741216E-06  7.32423046421E-06  7.41635794218E-06
  7.50964424116E-06  7.60410393734E-06  7.69975179022E-06  7.79660274499E-06
  7.89467193480E-06  7.99397468316E-06  8.09452650633E-06  8.19634311573E-06
  8.29944042043E-06  8.40383452957E-06  8.50954175495E-06  8.61657861355E-06
  8.72496183009E-06  8.83470833966E-06  8.94583529039E-06  9.05836004608E-06
  9.17230018896E-06  9.28767352240E-06  9.40449807373E-06  9.52279209701E-06
  9.64257407593E-06  9.76386272667E-06  9.88667700083E-06  1.00110360884E-05
  1.01369594207E-05  1.02644666735E-05  1.03935777702E-05  1.05243128845E-05
  1.06566924441E-05  1.07907371336E-05  1.09264678977E-05  1.10639059447E-05