<PP_INFO>
Generated using Vanderbilt code, version   7  3  2                              
Author: P. Giannozzi    Generation date:   27    3 2002
Fe PBE with s and p semicore states in valence - rinner = 1.0
    1        The Pseudo was generated with a Scalar-Relativistic Calculation
  1.70000000000E+00    Local Potential cutoff radius
nl pn  l   occ               Rcut            Rcut US             E pseu
3S  3  0  2.00     10.00000000000      1.70000000000     -6.90965348500
3P  3  1  6.00     10.00000000000      1.70000000000     -4.41312888300
3D  3  2  6.00     10.00000000000      1.70000000000     -0.55162183000
4S  4  0  2.00     10.00000000000      1.70000000000     -0.38894610800
4P  4  1  0.00     10.00000000000      1.70000000000     -0.09741798000
</PP_INFO>


<PP_HEADER>
   0                   Version Number
   Fe                  Element
   US                  Ultrasoft pseudopotential
    F                  Nonlinear Core Correction
 SLA  PW   PBE  PBE    PBE  Exchange-Correlation functional
   16.00000000000      Z valence
 -248.59119665900      Total energy
  0.0000000  0.0000000 Suggested cutoff for wfc and rho
    2                  Max angular momentum component
  601                  Number of points in mesh
    5    6             Number of Wavefunctions, Number of Projectors
 Wavefunctions         nl  l   occ
                       3S  0  2.00
                       3P  1  6.00
                       3D  2  6.00
                       4S  0  2.00
                       4P  1  0.00
</PP_HEADER>


<PP_MESH>
  <PP_R>
  0.00000000000E+00  2.41345808087E-06  4.88801314393E-06  7.42521186666E-06
  1.00266400808E-05  1.26939237638E-05  1.54287300547E-05  1.82327682964E-05
  2.11077911042E-05  2.40555954609E-05  2.70780238401E-05  3.01769653581E-05
  3.33543569540E-05  3.66121846012E-05  3.99524845479E-05  4.33773445904E-05
  4.68889053776E-05  5.04893617493E-05  5.41809641081E-05  5.79660198255E-05
  6.18468946845E-05  6.58260143584E-05  6.99058659264E-05  7.40889994285E-05
  7.83780294595E-05  8.27756368026E-05  8.72845701056E-05  9.19076475986E-05
  9.66477588555E-05  1.01507866600E-04  1.06491008558E-04  1.11600299356E-04
  1.16838932465E-04  1.22210182203E-04  1.27717405776E-04  1.33364045377E-04
  1.39153630340E-04  1.45089779345E-04  1.51176202677E-04  1.57416704549E-04
  1.63815185478E-04  1.70375644723E-04  1.77102182784E-04  1.83999003967E-04
  1.91070419010E-04  1.98320847777E-04  2.05754822022E-04  2.13376988220E-04
  2.21192110475E-04  2.29205073492E-04  2.37420885633E-04  2.45844682049E-04
  2.54481727886E-04  2.63337421579E-04  2.72417298226E-04  2.81727033044E-04
  2.91272444922E-04  3.01059500051E-04  3.11094315661E-04  3.21383163837E-04
  3.31932475445E-04  3.42748844148E-04  3.53839030528E-04  3.65209966313E-04
  3.76868758708E-04  3.88822694837E-04  4.01079246301E-04  4.13646073841E-04
  4.26531032136E-04  4.39742174703E-04  4.53287758936E-04  4.67176251266E-04
  4.81416332454E-04  4.96016903014E-04  5.10987088776E-04  5.26336246596E-04
  5.42073970196E-04  5.58210096165E-04  5.74754710109E-04  5.91718152948E-04
  6.09111027387E-04  6.26944204539E-04  6.45228830720E-04  6.63976334416E-04
  6.83198433428E-04  7.02907142194E-04  7.23114779297E-04  7.43833975168E-04
  7.65077679981E-04  7.86859171741E-04  8.09192064590E-04  8.32090317313E-04
  8.55568242064E-04  8.79640513310E-04  9.04322177003E-04  9.29628659988E-04
  9.55575779639E-04  9.82179753752E-04  1.00945721068E-03  1.03742519971E-03
  1.06610120176E-03  1.09550314025E-03  1.12564939236E-03  1.15655880048E-03
  1.18825068399E-03  1.22074485135E-03  1.25406161247E-03  1.28822179141E-03
  1.32324673941E-03  1.35915834818E-03  1.39597906366E-03  1.43373189998E-03
  1.47244045391E-03  1.51212891955E-03  1.55282210348E-03  1.59454544026E-03
  1.63732500834E-03  1.68118754635E-03  1.72616046979E-03  1.77227188821E-03
  1.81955062274E-03  1.86802622413E-03  1.91772899122E-03  1.96868998985E-03
  2.02094107230E-03  2.07451489720E-03  2.12944494993E-03  2.18576556357E-03
  2.24351194033E-03  2.30272017358E-03  2.36342727039E-03  2.42567117467E-03
  2.48949079089E-03  2.55492600838E-03  2.62201772630E-03  2.69080787914E-03
  2.76133946299E-03  2.83365656238E-03  2.90780437786E-03  2.98382925423E-03
  3.06177870951E-03  3.14170146464E-03  3.22364747395E-03  3.30766795636E-03
  3.39381542741E-03  3.48214373208E-03  3.57270807842E-03  3.66556507210E-03
  3.76077275177E-03  3.85839062533E-03  3.95847970712E-03  4.06110255608E-03
  4.16632331483E-03  4.27420774977E-03  4.38482329219E-03  4.49823908039E-03
  4.61452600294E-03  4.73375674294E-03  4.85600582351E-03  4.98134965428E-03
  5.10986657923E-03  5.24163692563E-03  5.37674305422E-03  5.51526941075E-03
  5.65730257869E-03  5.80293133339E-03  5.95224669758E-03  6.10534199820E-03
  6.26231292480E-03  6.42325758934E-03  6.58827658745E-03  6.75747306139E-03
  6.93095276446E-03  7.10882412713E-03  7.29119832477E-03  7.47818934721E-03
  7.66991406992E-03  7.86649232710E-03  8.06804698654E-03  8.27470402648E-03
  8.48659261430E-03  8.70384518725E-03  8.92659753527E-03  9.15498888583E-03
  9.38916199096E-03  9.62926321646E-03  9.87544263343E-03  1.01278541120E-02
  1.03866554176E-02  1.06520083094E-02  1.09240786417E-02  1.12030364672E-02
  1.14890561437E-02  1.17823164427E-02  1.20830006616E-02  1.23912967378E-02
  1.27073973662E-02  1.30315001202E-02  1.33638075744E-02  1.37045274319E-02
  1.40538726536E-02  1.44120615918E-02  1.47793181261E-02  1.51558718038E-02
  1.55419579832E-02  1.59378179808E-02  1.63436992220E-02  1.67598553957E-02
  1.71865466131E-02  1.76240395701E-02  1.80726077140E-02  1.85325314146E-02
  1.90040981390E-02  1.94876026320E-02  1.99833470994E-02  2.04916413978E-02
  2.10128032276E-02  2.15471583319E-02  2.20950407001E-02  2.26567927765E-02
  2.32327656745E-02  2.38233193957E-02  2.44288230556E-02  2.50496551136E-02
  2.56862036100E-02  2.63388664082E-02  2.70080514439E-02  2.76941769794E-02
  2.83976718656E-02  2.91189758096E-02  2.98585396498E-02  3.06168256378E-02
  3.13943077270E-02  3.21914718689E-02  3.30088163172E-02  3.38468519388E-02
  3.47061025330E-02  3.55871051597E-02  3.64904104740E-02  3.74165830712E-02
  3.83662018394E-02  3.93398603211E-02  4.03381670846E-02  4.13617461042E-02
  4.24112371500E-02  4.34872961881E-02  4.45905957904E-02  4.57218255552E-02
  4.68816925378E-02  4.80709216929E-02  4.92902563273E-02  5.05404585650E-02
  5.18223098231E-02  5.31366113002E-02  5.44841844776E-02  5.58658716324E-02
  5.72825363640E-02  5.87350641341E-02  6.02243628198E-02  6.17513632811E-02
  6.33170199432E-02  6.49223113924E-02  6.65682409881E-02  6.82558374899E-02
  6.99861557005E-02  7.17602771252E-02  7.35793106476E-02  7.54443932228E-02
  7.73566905882E-02  7.93173979919E-02  8.13277409398E-02  8.33889759618E-02
  8.55023913968E-02  8.76693081982E-02  8.98910807596E-02  9.21690977612E-02
  9.45047830377E-02  9.68995964685E-02  9.93550348900E-02  1.01872633031E-01
  1.04453964472E-01  1.07100642630E-01  1.09814321765E-01  1.12596698014E-01
  1.15449510453E-01  1.18374542182E-01  1.21373621443E-01  1.24448622756E-01
  1.27601468098E-01  1.30834128101E-01  1.34148623280E-01  1.37547025305E-01
  1.41031458286E-01  1.44604100109E-01  1.48267183789E-01  1.52022998875E-01
  1.55873892872E-01  1.59822272715E-01  1.63870606269E-01  1.68021423875E-01
  1.72277319929E-01  1.76640954505E-01  1.81115055016E-01  1.85702417921E-01
  1.90405910470E-01  1.95228472500E-01  2.00173118269E-01  2.05242938342E-01
  2.10441101521E-01  2.15770856828E-01  2.21235535532E-01  2.26838553236E-01
  2.32583412009E-01  2.38473702574E-01  2.44513106555E-01  2.50705398775E-01
  2.57054449619E-01  2.63564227451E-01  2.70238801093E-01  2.77082342371E-01
  2.84099128721E-01  2.91293545864E-01  2.98670090543E-01  3.06233373341E-01
  3.13988121553E-01  3.21939182152E-01  3.30091524808E-01  3.38450245000E-01
  3.47020567202E-01  3.55807848143E-01  3.64817580161E-01  3.74055394630E-01
  3.83527065486E-01  3.93238512831E-01  4.03195806637E-01  4.13405170535E-01
  4.23872985710E-01  4.34605794889E-01  4.45610306425E-01  4.56893398497E-01
  4.68462123405E-01  4.80323711978E-01  4.92485578096E-01  5.04955323320E-01
  5.17740741647E-01  5.30849824380E-01  5.44290765123E-01  5.58071964901E-01
  5.72202037411E-01  5.86689814411E-01  6.01544351231E-01  6.16774932442E-01
  6.32391077651E-01  6.48402547458E-01  6.64819349553E-01  6.81651744972E-01
  6.98910254510E-01  7.16605665297E-01  7.34749037541E-01  7.53351711439E-01
  7.72425314270E-01  7.91981767655E-01  8.12033295014E-01  8.32592429205E-01
  8.53672020356E-01  8.75285243898E-01  8.97445608799E-01  9.20166966008E-01
  9.43463517113E-01  9.67349823217E-01  9.91840814039E-01  1.01695179725E+00
  1.04269846802E+00  1.06909691887E+00  1.09616364968E+00  1.12391557804E+00
  1.15237004982E+00  1.18154484997E+00  1.21145821371E+00  1.24212883786E+00
  1.27357589256E+00  1.30581903323E+00  1.33887841290E+00  1.37277469475E+00
  1.40752906506E+00  1.44316324644E+00  1.47969951142E+00  1.51716069635E+00
  1.55557021569E+00  1.59495207664E+00  1.63533089415E+00  1.67673190629E+00
  1.71918099004E+00  1.76270467747E+00  1.80733017228E+00  1.85308536688E+00
  1.89999885974E+00  1.94809997333E+00  1.99741877241E+00  2.04798608283E+00
  2.09983351081E+00  2.15299346267E+00  2.20749916513E+00  2.26338468601E+00
  2.32068495558E+00  2.37943578839E+00  2.43967390561E+00  2.50143695803E+00
  2.56476354957E+00  2.62969326140E+00  2.69626667671E+00  2.76452540606E+00
  2.83451211336E+00  2.90627054260E+00  2.97984554512E+00  3.05528310770E+00
  3.13263038126E+00  3.21193571038E+00  3.29324866346E+00  3.37662006375E+00
  3.46210202109E+00  3.54974796448E+00  3.63961267549E+00  3.73175232249E+00
  3.82622449576E+00  3.92308824348E+00  4.02240410865E+00  4.12423416692E+00
  4.22864206538E+00  4.33569306238E+00  4.44545406827E+00  4.55799368725E+00
  4.67338226025E+00  4.79169190889E+00  4.91299658053E+00  5.03737209456E+00
  5.16489618972E+00  5.29564857272E+00  5.42971096805E+00  5.56716716908E+00
  5.70810309040E+00  5.85260682156E+00  6.00076868209E+00  6.15268127797E+00
  6.30843955953E+00  6.46814088076E+00  6.63188506018E+00  6.79977444324E+00
  6.97191396627E+00  7.14841122207E+00  7.32937652717E+00  7.51492299078E+00
  7.70516658549E+00  7.90022621972E+00  8.10022381210E+00  8.30528436763E+00
  8.51553605585E+00  8.73111029089E+00  8.95214181367E+00  9.17876877610E+00
  9.41113282739E+00  9.64937920264E+00  9.89365681360E+00  1.01441183417E+01
  1.04009203336E+01  1.06642232989E+01  1.09341918105E+01  1.12109946074E+01
  1.14948047006E+01  1.17857994804E+01  1.20841608282E+01  1.23900752295E+01
  1.27037338907E+01  1.30253328587E+01  1.33550731433E+01  1.36931608430E+01
  1.40398072736E+01  1.43952291003E+01  1.47596484734E+01  1.51332931669E+01
  1.55163967208E+01  1.59091985873E+01  1.63119442805E+01  1.67248855294E+01
  1.71482804358E+01  1.75823936353E+01  1.80274964627E+01  1.84838671219E+01
  1.89517908593E+01  1.94315601425E+01  1.99234748429E+01  2.04278424233E+01
  2.09449781298E+01  2.14752051890E+01  2.20188550101E+01  2.25762673919E+01
  2.31477907354E+01  2.37337822612E+01  2.43346082331E+01  2.49506441869E+01
  2.55822751651E+01  2.62298959576E+01  2.68939113486E+01  2.75747363692E+01
  2.82727965573E+01  2.89885282232E+01  2.97223787224E+01  3.04748067355E+01
  3.12462825544E+01  3.20372883767E+01  3.28483186067E+01  3.36798801647E+01
  3.45324928038E+01  3.54066894346E+01  3.63030164584E+01  3.72220341089E+01
  3.81643168020E+01  3.91304534951E+01  4.01210480549E+01  4.11367196355E+01
  4.21781030645E+01  4.32458492405E+01  4.43406255397E+01  4.54631162328E+01
  4.66140229131E+01  4.77940649347E+01  4.90039798624E+01  5.02445239322E+01
  5.15164725247E+01  5.28206206491E+01  5.41577834405E+01  5.55287966691E+01
  5.69345172628E+01  5.83758238427E+01  5.98536172725E+01  6.13688212210E+01
  6.29223827401E+01  6.45152728564E+01  6.61484871778E+01  6.78230465167E+01
  6.95399975271E+01  7.13004133592E+01  7.31053943303E+01  7.49560686122E+01
  7.68535929366E+01  7.87991533180E+01  8.07939657949E+01  8.28392771901E+01
  8.49363658898E+01  8.70865426427E+01  8.92911513792E+01  9.15515700516E+01
  9.38692114951E+01  9.62455243111E+01  9.86819937724E+01  1.01180142752E+02
  1.03741532674E+02  1.06367764490E+02  1.09060479682E+02  1.11821361283E+02
  1.14652134934E+02  1.17554569962E+02  1.20530480482E+02  1.23581726536E+02
  1.26710215251E+02  1.29917902035E+02  1.33206791797E+02  1.36578940200E+02
  1.40036454945E+02  1.43581497094E+02  1.47216282411E+02  1.50943082757E+02
  1.54764227503E+02  1.58682104988E+02  1.62699164015E+02  1.66817915374E+02
  1.71040933421E+02  1.75370857679E+02  1.79810394491E+02  1.84362318712E+02
  1.89029475444E+02  1.93814781811E+02  1.98721228786E+02  2.03751883056E+02
  2.08909888947E+02  2.14198470377E+02  2.19620932885E+02  2.25180665684E+02
  2.30881143789E+02  2.36725930184E+02  2.42718678051E+02  2.48863133053E+02
  2.55163135674E+02  2.61622623621E+02  2.68245634283E+02  2.75036307258E+02
  2.81998886939E+02  2.89137725163E+02  2.96457283937E+02  3.03962138223E+02
  3.11656978801E+02
  </PP_R>
  <PP_RAB>
  2.38341555449E-06  2.44375200651E-06  2.50561588309E-06  2.56904585115E-06
  2.63408155651E-06  2.70076364858E-06  2.76913380585E-06  2.83923476190E-06
  2.91111033209E-06  2.98480544101E-06  3.06036615049E-06  3.13783968844E-06
  3.21727447834E-06  3.29872016952E-06  3.38222766818E-06  3.46784916925E-06
  3.55563818893E-06  3.64564959822E-06  3.73793965719E-06  3.83256605012E-06
  3.92958792160E-06  4.02906591345E-06  4.13106220265E-06  4.23564054020E-06
  4.34286629097E-06  4.45280647455E-06  4.56552980713E-06  4.68110674445E-06
  4.79960952588E-06  4.92111221949E-06  5.04569076844E-06  5.17342303838E-06
  5.30438886612E-06  5.43867010957E-06  5.57635069889E-06  5.71751668892E-06
  5.86225631300E-06  6.01066003810E-06  6.16282062140E-06  6.31883316820E-06
  6.47879519143E-06  6.64280667255E-06  6.81097012409E-06  6.98339065367E-06
  7.16017602973E-06  7.34143674890E-06  7.52728610502E-06  7.71784026000E-06
  7.91321831637E-06  8.11354239178E-06  8.31893769531E-06  8.52953260570E-06
  8.74545875163E-06  8.96685109397E-06  9.19384801014E-06  9.42659138060E-06
  9.66522667753E-06  9.90990305577E-06  1.01607734460E-05  1.04179946504E-05
  1.06817274406E-05  1.09521366582E-05  1.12293913177E-05  1.15136647123E-05
  1.18051345222E-05  1.21039829254E-05  1.24103967120E-05  1.27245674005E-05
  1.30466913579E-05  1.33769699221E-05  1.37156095279E-05  1.40628218361E-05
  1.44188238658E-05  1.47838381298E-05  1.51580927739E-05  1.55418217194E-05
  1.59352648094E-05  1.63386679586E-05  1.67522833072E-05  1.71763693782E-05
  1.76111912392E-05  1.80570206680E-05  1.85141363225E-05  1.89828239149E-05
  1.94633763902E-05  1.99560941093E-05  2.04612850369E-05  2.09792649337E-05
  2.15103575540E-05  2.20548948480E-05  2.26132171692E-05  2.31856734873E-05
  2.37726216061E-05  2.43744283872E-05  2.49914699796E-05  2.56241320542E-05
  2.62728100455E-05  2.69379093983E-05  2.76198458214E-05  2.83190455472E-05
  2.90359455984E-05  2.97709940607E-05  3.05246503635E-05  3.12973855664E-05
  3.20896826542E-05  3.29020368381E-05  3.37349558662E-05  3.45889603398E-05
  3.54645840397E-05  3.63623742590E-05  3.72828921459E-05  3.82267130541E-05
  3.91944269023E-05  4.01866385432E-05  4.12039681414E-05  4.22470515610E-05
  4.33165407630E-05  4.44131042132E-05  4.55374272992E-05  4.66902127596E-05
  4.78721811229E-05  4.90840711578E-05  5.03266403350E-05  5.16006653007E-05
  5.29069423619E-05  5.42462879844E-05  5.56195393027E-05  5.70275546437E-05
  5.84712140627E-05  5.99514198939E-05  6.14690973141E-05  6.30251949212E-05
  6.46206853267E-05  6.62565657641E-05  6.79338587120E-05  6.96536125329E-05
  7.14169021292E-05  7.32248296140E-05  7.50785250011E-05  7.69791469103E-05
  7.89278832922E-05  8.09259521705E-05  8.29746024032E-05  8.50751144635E-05
  8.72288012398E-05  8.94370088564E-05  9.17011175150E-05  9.40225423571E-05
  9.64027343488E-05  9.88431811878E-05  1.01345408233E-04  1.03910979457E-04
  1.06541498425E-04  1.09238609299E-04  1.12003997859E-04  1.14839392564E-04
  1.17746565628E-04  1.20727334128E-04  1.23783561142E-04  1.26917156911E-04
  1.30130080035E-04  1.33424338695E-04  1.36801991910E-04  1.40265150823E-04
  1.43815980022E-04  1.47456698889E-04  1.51189582994E-04  1.55016965509E-04
  1.58941238675E-04  1.62964855288E-04  1.67090330241E-04  1.71320242089E-04
  1.75657234666E-04  1.80104018733E-04  1.84663373674E-04  1.89338149235E-04
  1.94131267303E-04  1.99045723732E-04  2.04084590218E-04  2.09251016217E-04
  2.14548230912E-04  2.19979545236E-04  2.25548353936E-04  2.31258137700E-04
  2.37112465328E-04  2.43114995966E-04  2.49269481390E-04  2.55579768355E-04
  2.62049800994E-04  2.68683623290E-04  2.75485381596E-04  2.82459327234E-04
  2.89609819146E-04  2.96941326623E-04  3.04458432095E-04  3.12165833998E-04
  3.20068349710E-04  3.28170918559E-04  3.36478604915E-04  3.44996601352E-04
  3.53730231896E-04  3.62684955349E-04  3.71866368706E-04  3.81280210649E-04
  3.90932365135E-04  4.00828865075E-04  4.10975896105E-04  4.21379800447E-04
  4.32047080882E-04  4.42984404807E-04  4.54198608405E-04  4.65696700919E-04
  4.77485869030E-04  4.89573481353E-04  5.01967093039E-04  5.14674450499E-04
  5.27703496244E-04  5.41062373853E-04  5.54759433058E-04  5.68803234968E-04
  5.83202557416E-04  5.97966400447E-04  6.13103991944E-04  6.28624793394E-04
  6.44538505803E-04  6.60855075761E-04  6.77584701653E-04  6.94737840040E-04
  7.12325212194E-04  7.30357810793E-04  7.48846906799E-04  7.67804056499E-04
  7.87241108729E-04  8.07170212278E-04  8.27603823486E-04  8.48554714024E-04
  8.70035978881E-04  8.92061044547E-04  9.14643677405E-04  9.37797992335E-04
  9.61538461538E-04  9.85879923581E-04  1.01083759267E-03  1.03642706816E-03
  1.06266434430E-03  1.08956582026E-03  1.11714831032E-03  1.14542905443E-03
  1.17442572900E-03  1.20415645788E-03  1.23463982374E-03  1.26589487968E-03
  1.29794116113E-03  1.33079869806E-03  1.36448802749E-03  1.39903020636E-03
  1.43444682466E-03  1.47076001891E-03  1.50799248605E-03  1.54616749758E-03
  1.58530891413E-03  1.62544120036E-03  1.66658944026E-03  1.70877935280E-03
  1.75203730807E-03  1.79639034368E-03  1.84186618174E-03  1.88849324612E-03
  1.93630068026E-03  1.98531836535E-03  2.03557693905E-03  2.08710781460E-03
  2.13994320047E-03  2.19411612051E-03  2.24966043454E-03  2.30661085958E-03
  2.36500299150E-03  2.42487332727E-03  2.48625928780E-03  2.54919924133E-03
  2.61373252736E-03  2.67989948131E-03  2.74774145968E-03  2.81730086590E-03
  2.88862117687E-03  2.96174697011E-03  3.03672395162E-03  3.11359898446E-03
  3.19242011802E-03  3.27323661807E-03  3.35609899756E-03  3.44105904817E-03
  3.52816987271E-03  3.61748591827E-03  3.70906301029E-03  3.80295838742E-03
  3.89923073735E-03  3.99794023342E-03  4.09914857228E-03  4.20291901243E-03
  4.30931641379E-03  4.41840727818E-03  4.53025979095E-03  4.64494386357E-03
  4.76253117730E-03  4.88309522806E-03  5.00671137229E-03  5.13345687411E-03
  5.26341095358E-03  5.39665483624E-03  5.53327180385E-03  5.67334724646E-03
  5.81696871578E-03  5.96422597991E-03  6.11521107942E-03  6.27001838493E-03
  6.42874465604E-03  6.59148910183E-03  6.75835344287E-03  6.92944197483E-03
  7.10486163359E-03  7.28472206215E-03  7.46913567914E-03  7.65821774907E-03
  7.85208645439E-03  8.05086296935E-03  8.25467153575E-03  8.46363954057E-03
  8.67789759561E-03  8.89757961914E-03  9.12282291958E-03  9.35376828131E-03
  9.59056005271E-03  9.83334623634E-03  1.00822785815E-02  1.03375126789E-02
  1.05992080583E-02  1.08675282878E-02  1.11426410762E-02  1.14247183780E-02
  1.17139365007E-02  1.20104762150E-02  1.23145228679E-02  1.26262664985E-02
  1.29459019567E-02  1.32736290251E-02  1.36096525436E-02  1.39541825381E-02
  1.43074343508E-02  1.46696287758E-02  1.50409921963E-02  1.54217567266E-02
  1.58121603568E-02  1.62124471020E-02  1.66228671544E-02  1.70436770399E-02
  1.74751397783E-02  1.79175250480E-02  1.83711093541E-02  1.88361762015E-02
  1.93130162723E-02  1.98019276069E-02  2.03032157909E-02  2.08171941457E-02
  2.13441839245E-02  2.18845145130E-02  2.24385236355E-02  2.30065575657E-02
  2.35889713434E-02  2.41861289960E-02  2.47984037665E-02  2.54261783467E-02
  2.60698451160E-02  2.67298063872E-02  2.74064746575E-02  2.81002728666E-02
  2.88116346610E-02  2.95410046649E-02  3.02888387584E-02  3.10556043621E-02
  3.18417807295E-02  3.26478592464E-02  3.34743437381E-02  3.43217507843E-02
  3.51906100420E-02  3.60814645765E-02  3.69948712010E-02  3.79314008242E-02
  3.88916388078E-02  3.98761853316E-02  4.08856557693E-02  4.19206810728E-02
  4.29819081666E-02  4.40700003522E-02  4.51856377227E-02  4.63295175876E-02
  4.75023549092E-02  4.87048827489E-02  4.99378527258E-02  5.12020354863E-02
  5.24982211857E-02  5.38272199824E-02  5.51898625437E-02  5.65870005657E-02
  5.80195073052E-02  5.94882781254E-02  6.09942310559E-02  6.25383073664E-02
  6.41214721547E-02  6.57447149505E-02  6.74090503334E-02  6.91155185670E-02
  7.08651862496E-02  7.26591469805E-02  7.44985220435E-02  7.63844611079E-02
  7.83181429471E-02  8.03007761750E-02  8.23336000021E-02  8.44178850094E-02
  8.65549339428E-02  8.87460825276E-02  9.09927003028E-02  9.32961914778E-02
  9.56579958096E-02  9.80795895026E-02  1.00562486132E-01  1.03108237589E-01
  1.05718435050E-01  1.08394709975E-01  1.11138735122E-01  1.13952225597E-01
  1.16836939922E-01  1.19794681138E-01  1.22827297929E-01  1.25936685780E-01
  1.29124788159E-01  1.32393597734E-01  1.35745157617E-01  1.39181562642E-01
  1.42704960676E-01  1.46317553954E-01  1.50021600468E-01  1.53819415365E-01
  1.57713372404E-01  1.61705905434E-01  1.65799509920E-01  1.69996744497E-01
  1.74300232572E-01  1.78712663967E-01  1.83236796595E-01  1.87875458185E-01
  1.92631548053E-01  1.97508038908E-01  2.02507978718E-01  2.07634492606E-01
  2.12890784812E-01  2.18280140688E-01  2.23805928757E-01  2.29471602818E-01
  2.35280704100E-01  2.41236863482E-01  2.47343803756E-01  2.53605341959E-01
  2.60025391756E-01  2.66607965888E-01  2.73357178677E-01  2.80277248601E-01
  2.87372500930E-01  2.94647370426E-01  3.02106404121E-01  3.09754264152E-01
  3.17595730682E-01  3.25635704883E-01  3.33879211999E-01  3.42331404491E-01
  3.50997565255E-01  3.59883110923E-01  3.68993595251E-01  3.78334712588E-01
  3.87912301435E-01  3.97732348099E-01  4.07800990428E-01  4.18124521650E-01
  4.28709394310E-01  4.39562224297E-01  4.50689794983E-01  4.62099061462E-01
  4.73797154897E-01  4.85791386978E-01  4.98089254489E-01  5.10698443998E-01
  5.23626836660E-01  5.36882513139E-01  5.50473758667E-01  5.64409068213E-01
  5.78697151800E-01  5.93346939945E-01  6.08367589243E-01  6.23768488087E-01
  6.39559262543E-01  6.55749782356E-01  6.72350167131E-01  6.89370792646E-01
  7.06822297348E-01  7.24715588995E-01  7.43061851476E-01  7.61872551803E-01
  7.81159447276E-01  8.00934592833E-01  8.21210348583E-01  8.41999387533E-01
  8.63314703510E-01  8.85169619280E-01  9.07577794877E-01  9.30553236139E-01
  9.54110303466E-01  9.78263720792E-01  1.00302858479E+00  1.02842037430E+00
  1.05445496003E+00  1.08114861443E+00  1.10851802191E+00  1.13658028924E+00
  1.16535295624E+00  1.19485400678E+00  1.22510187997E+00  1.25611548172E+00
  1.28791419653E+00  1.32051789964E+00  1.35394696943E+00  1.38822230014E+00
  1.42336531499E+00  1.45939797948E+00  1.49634281523E+00  1.53422291394E+00
  1.57306195192E+00  1.61288420482E+00  1.65371456286E+00  1.69557854633E+00
  1.73850232159E+00  1.78251271740E+00  1.82763724167E+00  1.87390409872E+00
  1.92134220683E+00  1.96998121637E+00  2.01985152829E+00  2.07098431317E+00
  2.12341153066E+00  2.17716594948E+00  2.23228116790E+00  2.28879163470E+00
  2.34673267079E+00  2.40614049119E+00  2.46705222773E+00  2.52950595221E+00
  2.59354070026E+00  2.65919649567E+00  2.72651437546E+00  2.79553641548E+00
  2.86630575677E+00  2.93886663246E+00  3.01326439547E+00  3.08954554681E+00
  3.16775776470E+00  3.24794993430E+00  3.33017217835E+00  3.41447588841E+00
  3.50091375705E+00  3.58953981076E+00  3.68040944369E+00  3.77357945234E+00
  3.86910807098E+00  3.96705500812E+00  4.06748148378E+00  4.17045026777E+00
  4.27602571894E+00  4.38427382538E+00  4.49526224568E+00  4.60906035122E+00
  4.72573926952E+00  4.84537192869E+00  4.96803310305E+00  5.09379945983E+00
  5.22274960708E+00  5.35496414285E+00  5.49052570553E+00  5.62951902551E+00
  5.77203097814E+00  5.91815063802E+00  6.06796933470E+00  6.22158070975E+00
  6.37908077527E+00  6.54056797393E+00  6.70614324049E+00  6.87591006487E+00
  7.04997455688E+00  7.22844551248E+00  7.41143448184E+00  7.59905583900E+00
  7.79142685344E+00
  </PP_RAB>
</PP_MESH>


<PP_LOCAL>
 -4.92706368748E+01 -4.92706368748E+01 -4.92706368742E+01 -4.92706368735E+01
 -4.92706368727E+01 -4.92706368710E+01 -4.92706368689E+01 -4.92706368667E+01
 -4.92706368637E+01 -4.92706368606E+01 -4.92706368566E+01 -4.92706368522E+01
 -4.92706368474E+01 -4.92706368415E+01 -4.92706368354E+01 -4.92706368281E+01
 -4.92706368203E+01 -4.92706368116E+01 -4.92706368020E+01 -4.92706367915E+01
 -4.92706367800E+01 -4.92706367673E+01 -4.92706367535E+01 -4.92706367386E+01
 -4.92706367223E+01 -4.92706367047E+01 -4.92706366857E+01 -4.92706366650E+01
 -4.92706366429E+01 -4.92706366190E+01 -4.92706365933E+01 -4.92706365653E+01
 -4.92706365359E+01 -4.92706365041E+01 -4.92706364697E+01 -4.92706364331E+01
 -4.92706363940E+01 -4.92706363519E+01 -4.92706363071E+01 -4.92706362592E+01
 -4.92706362082E+01 -4.92706361537E+01 -4.92706360958E+01 -4.92706360340E+01
 -4.92706359680E+01 -4.92706358978E+01 -4.92706358231E+01 -4.92706357438E+01
 -4.92706356596E+01 -4.92706355699E+01 -4.92706354747E+01 -4.92706353733E+01
 -4.92706352663E+01 -4.92706351524E+01 -4.92706350313E+01 -4.92706349033E+01
 -4.92706347675E+01 -4.92706346233E+01 -4.92706344709E+01 -4.92706343094E+01
 -4.92706341381E+01 -4.92706339567E+01 -4.92706337647E+01 -4.92706335617E+01
 -4.92706333469E+01 -4.92706331194E+01 -4.92706328788E+01 -4.92706326245E+01
 -4.92706323558E+01 -4.92706320715E+01 -4.92706317709E+01 -4.92706314534E+01
 -4.92706311177E+01 -4.92706307632E+01 -4.92706303889E+01 -4.92706299933E+01
 -4.92706295756E+01 -4.92706291347E+01 -4.92706286689E+01 -4.92706281774E+01
 -4.92706276587E+01 -4.92706271111E+01 -4.92706265333E+01 -4.92706259235E+01
 -4.92706252803E+01 -4.92706246017E+01 -4.92706238858E+01 -4.92706231308E+01
 -4.92706223346E+01 -4.92706214948E+01 -4.92706206095E+01 -4.92706196759E+01
 -4.92706186917E+01 -4.92706176540E+01 -4.92706165603E+01 -4.92706154074E+01
 -4.92706141924E+01 -4.92706129118E+01 -4.92706115620E+01 -4.92706101402E+01
 -4.92706086416E+01 -4.92706070631E+01 -4.92706053998E+01 -4.92706036473E+01
 -4.92706018014E+01 -4.92705998568E+01 -4.92705978088E+01 -4.92705956516E+01
 -4.92705933794E+01 -4.92705909865E+01 -4.92705884665E+01 -4.92705858129E+01
 -4.92705830186E+01 -4.92705800759E+01 -4.92705769778E+01 -4.92705737158E+01
 -4.92705702815E+01 -4.92705666655E+01 -4.92705628591E+01 -4.92705588517E+01
 -4.92705546336E+01 -4.92705501932E+01 -4.92705455192E+01 -4.92705405992E+01
 -4.92705354209E+01 -4.92705299706E+01 -4.92705242347E+01 -4.92705181973E+01
 -4.92705118439E+01 -4.92705051572E+01 -4.92704981206E+01 -4.92704907157E+01
 -4.92704829240E+01 -4.92704747246E+01 -4.92704660968E+01 -4.92704570181E+01
 -4.92704474660E+01 -4.92704374149E+01 -4.92704268402E+01 -4.92704157135E+01
 -4.92704040075E+01 -4.92703916913E+01 -4.92703787345E+01 -4.92703651026E+01
 -4.92703507623E+01 -4.92703356749E+01 -4.92703198045E+01 -4.92703031081E+01
 -4.92702855454E+01 -4.92702670694E+01 -4.92702476353E+01 -4.92702271912E+01
 -4.92702056874E+01 -4.92701830671E+01 -4.92701592750E+01 -4.92701342481E+01
 -4.92701079255E+01 -4.92700802378E+01 -4.92700511172E+01 -4.92700204869E+01
 -4.92699882726E+01 -4.92699543889E+01 -4.92699187539E+01 -4.92698812731E+01
 -4.92698418557E+01 -4.92698003978E+01 -4.92697567986E+01 -4.92697109433E+01
 -4.92696627208E+01 -4.92696120039E+01 -4.92695586698E+01 -4.92695025780E+01
 -4.92694435925E+01 -4.92693815584E+01 -4.92693163254E+01 -4.92692477219E+01
 -4.92691755818E+01 -4.92690997156E+01 -4.92690199398E+01 -4.92689360448E+01
 -4.92688478276E+01 -4.92687550568E+01 -4.92686575080E+01 -4.92685549252E+01
 -4.92684470606E+01 -4.92683336313E+01 -4.92682143632E+01 -4.92680889436E+01
 -4.92679570696E+01 -4.92678183958E+01 -4.92676725870E+01 -4.92675192618E+01
 -4.92673580496E+01 -4.92671885290E+01 -4.92670102901E+01 -4.92668228665E+01
 -4.92666258068E+01 -4.92664185945E+01 -4.92662007306E+01 -4.92659716448E+01
 -4.92657307851E+01 -4.92654775211E+01 -4.92652112428E+01 -4.92649312541E+01
 -4.92646368805E+01 -4.92643273521E+01 -4.92640019235E+01 -4.92636597445E+01
 -4.92632999911E+01 -4.92629217232E+01 -4.92625240305E+01 -4.92621058739E+01
 -4.92616662474E+01 -4.92612040024E+01 -4.92607180272E+01 -4.92602070529E+01
 -4.92596698503E+01 -4.92591050170E+01 -4.92585111946E+01 -4.92578868337E+01
 -4.92572304324E+01 -4.92565402793E+01 -4.92558147141E+01 -4.92550518454E+01
 -4.92542498385E+01 -4.92534066028E+01 -4.92525201118E+01 -4.92515880539E+01
 -4.92506081903E+01 -4.92495779669E+01 -4.92484949096E+01 -4.92473561952E+01
 -4.92461590895E+01 -4.92449004744E+01 -4.92435773273E+01 -4.92421862022E+01
 -4.92407237608E+01 -4.92391861939E+01 -4.92375698125E+01 -4.92358704087E+01
 -4.92340839059E+01 -4.92322056541E+01 -4.92302311492E+01 -4.92281552537E+01
 -4.92259729907E+01 -4.92236786840E+01 -4.92212668352E+01 -4.92187311719E+01
 -4.92160656201E+01 -4.92132632499E+01 -4.92103173510E+01 -4.92072202675E+01
 -4.92039645856E+01 -4.92005418486E+01 -4.91969438666E+01 -4.91931612970E+01
 -4.91891850934E+01 -4.91850049363E+01 -4.91806108332E+01 -4.91759913856E+01
 -4.91711355573E+01 -4.91660307583E+01 -4.91606648007E+01 -4.91550237801E+01
 -4.91490942374E+01 -4.91428608174E+01 -4.91363086586E+01 -4.91294208055E+01
 -4.91221808500E+01 -4.91145700706E+01 -4.91065703535E+01 -4.90981610302E+01