<PP_INFO>
Generated using modified version of ld1 code for metaGGA
Author: Xiaofei Wang/Carlo Sbraccia   Generation date:  2005
Info: automatically converted from PWSCF format                                 
    1        The Pseudo was generated with a Scalar-Relativistic Calculation
nl pn  l   occ               Rcut            Rcut US             E pseu
4S  0  0  2.00      0.00000000000      0.00000000000      0.00000000000
4P  0  1  2.00      0.00000000000      0.00000000000      0.00000000000
4D  0  2  0.20      0.00000000000      0.00000000000      0.00000000000
</PP_INFO>


<PP_HEADER>
   0                   Version Number
  Ge                   Element
   NC                  Norm - Conserving pseudopotential
    T                  Nonlinear Core Correction
 SLA  PW   TPSS TPSS   META Exchange-Correlation functional
    4.00000000000      Z valence
    0.00000000000      Total energy
  0.0000000  0.0000000 Suggested cutoff for wfc and rho
    2                  Max angular momentum component
  629                  Number of points in mesh
    3    2             Number of Wavefunctions, Number of Projectors
 Wavefunctions         nl  l   occ
                       4S  0  2.00
                       4P  1  2.00
                       4D  2  0.20
</PP_HEADER>


<PP_MESH>
  <PP_R>
  2.10560843721E-04  2.14814454922E-04  2.19153994768E-04  2.23581199135E-04
  2.28097838962E-04  2.32705720966E-04  2.37406688362E-04  2.42202621598E-04
  2.47095439112E-04  2.52087098097E-04  2.57179595282E-04  2.62374967734E-04
  2.67675293672E-04  2.73082693296E-04  2.78599329639E-04  2.84227409428E-04
  2.89969183971E-04  2.95826950053E-04  3.01803050861E-04  3.07899876912E-04
  3.14119867020E-04  3.20465509263E-04  3.26939341982E-04  3.33543954798E-04
  3.40281989642E-04  3.47156141820E-04  3.54169161083E-04  3.61323852733E-04
  3.68623078742E-04  3.76069758898E-04  3.83666871971E-04  3.91417456909E-04
  3.99324614048E-04  4.07391506357E-04  4.15621360701E-04  4.24017469131E-04
  4.32583190202E-04  4.41321950318E-04  4.50237245097E-04  4.59332640778E-04
  4.68611775640E-04  4.78078361460E-04  4.87736184999E-04  4.97589109516E-04
  5.07641076311E-04  5.17896106305E-04  5.28358301647E-04  5.39031847355E-04
  5.49921012988E-04  5.61030154359E-04  5.72363715273E-04  5.83926229304E-04
  5.95722321613E-04  6.07756710793E-04  6.20034210762E-04  6.32559732681E-04
  6.45338286929E-04  6.58374985095E-04  6.71675042034E-04  6.85243777946E-04
  6.99086620505E-04  7.13209107034E-04  7.27616886716E-04  7.42315722853E-04
  7.57311495178E-04  7.72610202198E-04  7.88217963601E-04  8.04141022699E-04
  8.20385748928E-04  8.36958640395E-04  8.53866326478E-04  8.71115570476E-04
  8.88713272318E-04  9.06666471319E-04  9.24982348997E-04  9.43668231947E-04
  9.62731594773E-04  9.82180063074E-04  1.00202141650E-03  1.02226359184E-03
  1.04291468626E-03  1.06398296046E-03  1.08547684202E-03  1.10740492880E-03
  1.12977599231E-03  1.15259898129E-03  1.17588302522E-03  1.19963743805E-03
  1.22387172184E-03  1.24859557065E-03  1.27381887432E-03  1.29955172254E-03
  1.32580440877E-03  1.35258743444E-03  1.37991151312E-03  1.40778757480E-03
  1.43622677028E-03  1.46524047562E-03  1.49484029669E-03  1.52503807381E-03
  1.55584588650E-03  1.58727605828E-03  1.61934116165E-03  1.65205402307E-03
  1.68542772814E-03  1.71947562676E-03  1.75421133857E-03  1.78964875830E-03
  1.82580206139E-03  1.86268570965E-03  1.90031445704E-03  1.93870335554E-03
  1.97786776124E-03  2.01782334041E-03  2.05858607583E-03  2.10017227312E-03
  2.14259856732E-03  2.18588192952E-03  2.23003967364E-03  2.27508946336E-03
  2.32104931920E-03  2.36793762571E-03  2.41577313885E-03  2.46457499346E-03
  2.51436271092E-03  2.56515620700E-03  2.61697579976E-03  2.66984221773E-03
  2.72377660819E-03  2.77880054561E-03  2.83493604029E-03  2.89220554720E-03
  2.95063197488E-03  3.01023869470E-03  3.07104955014E-03  3.13308886634E-03
  3.19638145986E-03  3.26095264859E-03  3.32682826185E-03  3.39403465078E-03
  3.46259869882E-03  3.53254783251E-03  3.60391003244E-03  3.67671384443E-03
  3.75098839098E-03  3.82676338291E-03  3.90406913121E-03  3.98293655921E-03
  4.06339721495E-03  4.14548328375E-03  4.22922760114E-03  4.31466366597E-03
  4.40182565378E-03  4.49074843055E-03  4.58146756657E-03  4.67401935071E-03
  4.76844080490E-03  4.86476969900E-03  4.96304456584E-03  5.06330471668E-03
  5.16559025692E-03  5.26994210214E-03  5.37640199447E-03  5.48501251928E-03
  5.59581712223E-03  5.70886012665E-03  5.82418675123E-03  5.94184312817E-03
  6.06187632159E-03  6.18433434636E-03  6.30926618733E-03  6.43672181890E-03
  6.56675222502E-03  6.69940941959E-03  6.83474646726E-03  6.97281750464E-03
  7.11367776199E-03  7.25738358530E-03  7.40399245882E-03  7.55356302803E-03
  7.70615512318E-03  7.86182978312E-03  8.02064927980E-03  8.18267714314E-03
  8.34797818643E-03  8.51661853231E-03  8.68866563916E-03  8.86418832812E-03
  9.04325681060E-03  9.22594271638E-03  9.41231912226E-03  9.60246058129E-03
  9.79644315258E-03  9.99434443176E-03  1.01962435820E-02  1.04022213656E-02
  1.06123601764E-02  1.08267440728E-02  1.10454588112E-02  1.12685918804E-02
  1.14962325366E-02  1.17284718391E-02  1.19654026867E-02  1.22071198550E-02
  1.24537200339E-02  1.27053018669E-02  1.29619659900E-02  1.32238150724E-02
  1.34909538572E-02  1.37634892033E-02  1.40415301287E-02  1.43251878533E-02
  1.46145758441E-02  1.49098098600E-02  1.52110079987E-02  1.55182907435E-02
  1.58317810114E-02  1.61516042029E-02  1.64778882513E-02  1.68107636748E-02
  1.71503636279E-02  1.74968239552E-02  1.78502832453E-02  1.82108828867E-02
  1.85787671241E-02  1.89540831160E-02  1.93369809939E-02  1.97276139221E-02
  2.01261381588E-02  2.05327131192E-02  2.09475014386E-02  2.13706690379E-02
  2.18023851897E-02  2.22428225863E-02  2.26921574086E-02  2.31505693963E-02
  2.36182419205E-02  2.40953620564E-02  2.45821206583E-02  2.50787124363E-02
  2.55853360337E-02  2.61021941066E-02  2.66294934052E-02  2.71674448562E-02
  2.77162636474E-02  2.82761693136E-02  2.88473858246E-02  2.94301416745E-02
  3.00246699735E-02  3.06312085408E-02  3.12500000000E-02  3.18812918758E-02
  3.25253366935E-02  3.31823920795E-02  3.38527208648E-02  3.45365911899E-02
  3.52342766119E-02  3.59460562143E-02  3.66722147185E-02  3.74130425976E-02
  3.81688361925E-02  3.89398978309E-02  3.97265359475E-02  4.05290652083E-02
  4.13478066355E-02  4.21830877368E-02  4.30352426355E-02  4.39046122051E-02
  4.47915442050E-02  4.56963934198E-02  4.66195218013E-02  4.75612986131E-02
  4.85221005785E-02  4.95023120311E-02  5.05023250685E-02  5.15225397094E-02
  5.25633640531E-02  5.36252144433E-02  5.47085156343E-02  5.58137009609E-02
  5.69412125122E-02  5.80915013077E-02  5.92650274783E-02  6.04622604501E-02
  6.16836791322E-02  6.29297721085E-02  6.42010378326E-02  6.54979848279E-02
  6.68211318905E-02  6.81710082968E-02  6.95481540154E-02  7.09531199229E-02
  7.23864680244E-02  7.38487716783E-02  7.53406158255E-02  7.68625972237E-02
  7.84153246855E-02  7.99994193228E-02  8.16155147945E-02  8.32642575603E-02
  8.49463071393E-02  8.66623363739E-02  8.84130316985E-02  9.01990934146E-02
  9.20212359708E-02  9.38801882483E-02  9.57766938529E-02  9.77115114121E-02
  9.96854148786E-02  1.01699193840E-01  1.03753653836E-01  1.05849616676E-01
  1.07987920774E-01  1.10169421480E-01  1.12394991424E-01  1.14665520863E-01
  1.16981918039E-01  1.19345109543E-01  1.21756040681E-01  1.24215675859E-01
  1.26724998964E-01  1.29285013758E-01  1.31896744281E-01  1.34561235261E-01
  1.37279552529E-01  1.40052783448E-01  1.42882037348E-01  1.45768445968E-01
  1.48713163911E-01  1.51717369101E-01  1.54782263262E-01  1.57909072393E-01
  1.61099047257E-01  1.64353463889E-01  1.67673624098E-01  1.71060855991E-01
  1.74516514509E-01  1.78041981958E-01  1.81638668575E-01  1.85308013081E-01
  1.89051483263E-01  1.92870576559E-01  1.96766820657E-01  2.00741774107E-01
  2.04797026943E-01  2.08934201321E-01  2.13154952165E-01  2.17460967832E-01
  2.21853970786E-01  2.26335718286E-01  2.30908003092E-01  2.35572654177E-01
  2.40331537465E-01  2.45186556572E-01  2.50139653572E-01  2.55192809768E-01
  2.60348046490E-01  2.65607425903E-01  2.70973051827E-01  2.76447070585E-01
  2.82031671857E-01  2.87729089559E-01  2.93541602733E-01  2.99471536461E-01
  3.05521262798E-01  3.11693201713E-01  3.17989822065E-01  3.24413642585E-01
  3.30967232889E-01  3.37653214498E-01  3.44474261895E-01  3.51433103590E-01
  3.58532523212E-01  3.65775360624E-01  3.73164513058E-01  3.80702936272E-01
  3.88393645737E-01  3.96239717839E-01  4.04244291111E-01  4.12410567489E-01
  4.20741813594E-01  4.29241362034E-01  4.37912612742E-01  4.46759034334E-01
  4.55784165496E-01  4.64991616402E-01  4.74385070155E-01  4.83968284261E-01
  4.93745092133E-01  5.03719404626E-01  5.13895211597E-01  5.24276583504E-01
  5.34867673036E-01  5.45672716768E-01  5.56696036863E-01  5.67942042795E-01
  5.79415233117E-01  5.91120197258E-01  6.03061617359E-01  6.15244270149E-01
  6.27673028850E-01  6.40352865131E-01  6.53288851097E-01  6.66486161313E-01
  6.79950074881E-01  6.93685977545E-01  7.07699363849E-01  7.21995839335E-01
  7.36581122783E-01  7.51461048502E-01  7.66641568660E-01  7.82128755667E-01
  7.97928804605E-01  8.14048035704E-01  8.30492896871E-01  8.47269966271E-01
  8.64385954954E-01  8.81847709544E-01  8.99662214976E-01  9.17836597290E-01
  9.36378126481E-01  9.55294219408E-01  9.74592442760E-01  9.94280516083E-01
  1.01436631487E+00  1.03485787371E+00  1.05576338950E+00  1.07709122471E+00
  1.09884991078E+00  1.12104815147E+00  1.14369482636E+00  1.16679899444E+00
  1.19036989767E+00  1.21441696473E+00  1.23894981477E+00  1.26397826125E+00
  1.28951231589E+00  1.31556219266E+00  1.34213831184E+00  1.36925130424E+00
  1.39691201542E+00  1.42513151003E+00  1.45392107624E+00  1.48329223028E+00
  1.51325672098E+00  1.54382653455E+00  1.57501389931E+00  1.60683129064E+00
  1.63929143591E+00  1.67240731961E+00  1.70619218854E+00  1.74065955709E+00
  1.77582321267E+00  1.81169722122E+00  1.84829593281E+00  1.88563398742E+00
  1.92372632076E+00  1.96258817029E+00  2.00223508125E+00  2.04268291294E+00
  2.08394784503E+00  2.12604638404E+00  2.16899536996E+00  2.21281198295E+00
  2.25751375023E+00  2.30311855311E+00  2.34964463413E+00  2.39711060432E+00
  2.44553545072E+00  2.49493854391E+00  2.54533964578E+00  2.59675891745E+00
  2.64921692731E+00  2.70273465926E+00  2.75733352111E+00  2.81303535314E+00
  2.86986243682E+00  2.92783750373E+00  2.98698374469E+00  3.04732481897E+00
  3.10888486381E+00  3.17168850405E+00  3.23576086198E+00  3.30112756740E+00
  3.36781476786E+00  3.43584913913E+00  3.50525789587E+00  3.57606880250E+00
  3.64831018434E+00  3.72201093890E+00  3.79720054746E+00  3.87390908687E+00
  3.95216724157E+00  4.03200631586E+00  4.11345824643E+00  4.19655561515E+00
  4.28133166208E+00  4.36782029875E+00  4.45605612178E+00  4.54607442668E+00
  4.63791122196E+00  4.73160324356E+00  4.82718796956E+00  4.92470363511E+00
  5.02418924777E+00  5.12568460312E+00  5.22923030066E+00  5.33486776004E+00
  5.44263923766E+00  5.55258784354E+00  5.66475755860E+00  5.77919325221E+00
  5.89594070018E+00  6.01504660304E+00  6.13655860474E+00  6.26052531171E+00
  6.38699631228E+00  6.51602219653E+00  6.64765457655E+00  6.78194610703E+00
  6.91895050638E+00  7.05872257819E+00  7.20131823315E+00  7.34679451141E+00
  7.49520960545E+00  7.64662288326E+00  7.80109491218E+00  7.95868748308E+00
  8.11946363509E+00  8.28348768082E+00  8.45082523207E+00  8.62154322609E+00
  8.79570995235E+00  8.97339507988E+00  9.15466968508E+00  9.33960628022E+00
  9.52827884240E+00  9.72076284317E+00  9.91713527868E+00  1.01174747005E+01
  1.03218612472E+01  1.05303766759E+01  1.07431043958E+01  1.09601295006E+01
  1.11815388034E+01  1.14074208708E+01  1.16378660586E+01  1.18729665481E+01
  1.21128163824E+01  1.23575115049E+01  1.26071497966E+01  1.28618311165E+01
  1.31216573402E+01  1.33867324019E+01  1.36571623349E+01  1.39330553151E+01
  1.42145217031E+01  1.45016740894E+01  1.47946273386E+01  1.50934986360E+01
  1.53984075342E+01  1.57094760006E+01  1.60268284670E+01  1.63505918784E+01
  1.66808957445E+01  1.70178721914E+01  1.73616560141E+01  1.77123847307E+01
  1.80701986373E+01  1.84352408643E+01  1.88076574335E+01  1.91875973164E+01
  1.95752124941E+01  1.99706580178E+01  2.03740920710E+01  2.07856760326E+01
  2.12055745419E+01  2.16339555636E+01  2.20709904561E+01  2.25168540390E+01
  2.29717246638E+01  2.34357842847E+01  2.39092185319E+01  2.43922167852E+01
  2.48849722505E+01  2.53876820365E+01  2.59005472338E+01  2.64237729953E+01
  2.69575686184E+01  2.75021476284E+01  2.80577278641E+01  2.86245315650E+01
  2.92027854603E+01  2.97927208591E+01  3.03945737435E+01  3.10085848627E+01
  3.16349998292E+01  3.22740692175E+01  3.29260486638E+01  3.35911989686E+01
  3.42697862009E+01  3.49620818046E+01  3.56683627072E+01  3.63889114304E+01
  3.71240162034E+01  3.78739710779E+01  3.86390760458E+01  3.94196371593E+01
  4.02159666533E+01  4.10283830702E+01  4.18572113873E+01  4.27027831471E+01
  4.35654365896E+01  4.44455167875E+01  4.53433757848E+01  4.62593727370E+01
  4.71938740551E+01  4.81472535521E+01  4.91198925924E+01  5.01121802448E+01
  5.11245134374E+01  5.21572971170E+01  5.32109444110E+01  5.42858767922E+01
  5.53825242479E+01  5.65013254518E+01  5.76427279392E+01  5.88071882863E+01
  5.99951722929E+01
  </PP_R>
  <PP_RAB>
  4.21121687443E-06  4.29628909844E-06  4.38307989537E-06  4.47162398270E-06
  4.56195677924E-06  4.65411441933E-06  4.74813376724E-06  4.84405243196E-06
  4.94190878225E-06  5.04174196194E-06  5.14359190564E-06  5.24749935468E-06
  5.35350587344E-06  5.46165386592E-06  5.57198659277E-06  5.68454818856E-06
  5.79938367942E-06  5.91653900107E-06  6.03606101721E-06  6.15799753824E-06
  6.28239734040E-06  6.40931018525E-06  6.53878683964E-06  6.67087909595E-06
  6.80563979285E-06  6.94312283640E-06  7.08338322167E-06  7.22647705467E-06
  7.37246157484E-06  7.52139517795E-06  7.67333743942E-06  7.82834913817E-06
  7.98649228096E-06  8.14783012715E-06  8.31242721403E-06  8.48034938263E-06
  8.65166380405E-06  8.82643900635E-06  9.00474490195E-06  9.18665281556E-06
  9.37223551280E-06  9.56156722920E-06  9.75472369999E-06  9.95178219032E-06
  1.01528215262E-05  1.03579221261E-05  1.05671660329E-05  1.07806369471E-05
  1.09984202598E-05  1.12206030872E-05  1.14472743055E-05  1.16785245861E-05
  1.19144464323E-05  1.21551342159E-05  1.24006842152E-05  1.26511946536E-05
  1.29067657386E-05  1.31674997019E-05  1.34335008407E-05  1.37048755589E-05
  1.39817324101E-05  1.42641821407E-05  1.45523377343E-05  1.48463144571E-05
  1.51462299036E-05  1.54522040440E-05  1.57643592720E-05  1.60828204540E-05
  1.64077149786E-05  1.67391728079E-05  1.70773265296E-05  1.74223114095E-05
  1.77742654464E-05  1.81333294264E-05  1.84996469799E-05  1.88733646389E-05
  1.92546318955E-05  1.96436012615E-05  2.00404283299E-05  2.04452718369E-05
  2.08582937252E-05  2.12796592091E-05  2.17095368405E-05  2.21480985760E-05
  2.25955198463E-05  2.30519796258E-05  2.35176605045E-05  2.39927487610E-05
  2.44774344369E-05  2.49719114129E-05  2.54763774865E-05  2.59910344507E-05
  2.65160881753E-05  2.70517486887E-05  2.75982302623E-05  2.81557514960E-05
  2.87245354057E-05  2.93048095125E-05  2.98968059339E-05  3.05007614763E-05
  3.11169177299E-05  3.17455211656E-05  3.23868232330E-05  3.30410804615E-05
  3.37085545627E-05  3.43895125353E-05  3.50842267713E-05  3.57929751659E-05
  3.65160412278E-05  3.72537141931E-05  3.80062891408E-05  3.87740671108E-05
  3.95573552248E-05  4.03564668082E-05  4.11717215165E-05  4.20034454623E-05
  4.28519713464E-05  4.37176385904E-05  4.46007934727E-05  4.55017892671E-05
  4.64209863840E-05  4.73587525143E-05  4.83154627771E-05  4.92914998692E-05
  5.02872542185E-05  5.13031241399E-05  5.23395159951E-05  5.33968443546E-05
  5.44755321637E-05  5.55760109121E-05  5.66987208059E-05  5.78441109440E-05
  5.90126394977E-05  6.02047738941E-05  6.14209910027E-05  6.26617773268E-05
  6.39276291972E-05  6.52190529717E-05  6.65365652370E-05  6.78806930156E-05
  6.92519739765E-05  7.06509566503E-05  7.20782006488E-05  7.35342768886E-05
  7.50197678197E-05  7.65352676581E-05  7.80813826241E-05  7.96587311843E-05
  8.12679442990E-05  8.29096656751E-05  8.45845520229E-05  8.62932733193E-05
  8.80365130757E-05  8.98149686111E-05  9.16293513315E-05  9.34803870141E-05
  9.53688160981E-05  9.72953939800E-05  9.92608913168E-05  1.01266094334E-04
  1.03311805138E-04  1.05398842043E-04  1.07528039889E-04  1.09700250386E-04
  1.11916342445E-04  1.14177202533E-04  1.16483735025E-04  1.18836862563E-04
  1.21237526432E-04  1.23686686927E-04  1.26185323747E-04  1.28734436378E-04
  1.31335044500E-04  1.33988188392E-04  1.36694929345E-04  1.39456350093E-04
  1.42273555240E-04  1.45147671706E-04  1.48079849176E-04  1.51071260561E-04
  1.54123102464E-04  1.57236595662E-04  1.60412985596E-04  1.63653542863E-04
  1.66959563729E-04  1.70332370646E-04  1.73773312783E-04  1.77283766562E-04
  1.80865136212E-04  1.84518854328E-04  1.88246382445E-04  1.92049211626E-04
  1.95928863052E-04  1.99886888635E-04  2.03924871639E-04  2.08044427311E-04
  2.12247203528E-04  2.16534881456E-04  2.20909176224E-04  2.25371837608E-04
  2.29924650732E-04  2.34569436782E-04  2.39308053734E-04  2.44142397099E-04
  2.49074400678E-04  2.54106037338E-04  2.59239319801E-04  2.64476301449E-04
  2.69819077143E-04  2.75269784066E-04  2.80830602573E-04  2.86503757066E-04
  2.92291516881E-04  2.98196197201E-04  3.04220159975E-04  3.10365814870E-04
  3.16635620228E-04  3.23032084057E-04  3.29557765027E-04  3.36215273497E-04
  3.43007272559E-04  3.49936479103E-04  3.57005664906E-04  3.64217657734E-04
  3.71575342481E-04  3.79081662320E-04  3.86739619879E-04  3.94552278442E-04
  4.02522763177E-04  4.10654262384E-04  4.18950028772E-04  4.27413380758E-04
  4.36047703794E-04  4.44856451727E-04  4.53843148171E-04  4.63011387926E-04
  4.72364838410E-04  4.81907241127E-04  4.91642413167E-04  5.01574248727E-04
  5.11706720674E-04  5.22043882132E-04  5.32589868104E-04  5.43348897124E-04
  5.54325272948E-04  5.65523386272E-04  5.76947716492E-04  5.88602833490E-04
  6.00493399470E-04  6.12624170817E-04  6.25000000000E-04  6.37625837517E-04
  6.50506733870E-04  6.63647841591E-04  6.77054417297E-04  6.90731823797E-04
  7.04685532237E-04  7.18921124286E-04  7.33444294370E-04  7.48260851951E-04
  7.63376723850E-04  7.78797956617E-04  7.94530718951E-04  8.10581304166E-04
  8.26956132711E-04  8.43661754735E-04  8.60704852710E-04  8.78092244102E-04
  8.95830884100E-04  9.13927868396E-04  9.32390436026E-04  9.51225972262E-04
  9.70442011570E-04  9.90046240622E-04  1.01004650137E-03  1.03045079419E-03
  1.05126728106E-03  1.07250428887E-03  1.09417031269E-03  1.11627401922E-03
  1.13882425024E-03  1.16183002615E-03  1.18530054957E-03  1.20924520900E-03
  1.23367358264E-03  1.25859544217E-03  1.28402075665E-03  1.30995969656E-03
  1.33642263781E-03  1.36342016594E-03  1.39096308031E-03  1.41906239846E-03
  1.44772936049E-03  1.47697543357E-03  1.50681231651E-03  1.53725194447E-03
  1.56830649371E-03  1.59998838646E-03  1.63231029589E-03  1.66528515121E-03
  1.69892614279E-03  1.73324672748E-03  1.76826063397E-03  1.80398186829E-03
  1.84042471942E-03  1.87760376497E-03  1.91553387706E-03  1.95423022824E-03
  1.99370829757E-03  2.03398387681E-03  2.07507307671E-03  2.11699233351E-03
  2.15975841548E-03  2.20338842960E-03  2.24789982848E-03  2.29331041726E-03
  2.33963836079E-03  2.38690219085E-03  2.43512081362E-03  2.48431351718E-03
  2.53449997928E-03  2.58570027516E-03  2.63793488562E-03  2.69122470522E-03
  2.74559105057E-03  2.80105566896E-03  2.85764074696E-03  2.91536891937E-03
  2.97426327821E-03  3.03434738202E-03  3.09564526525E-03  3.15818144785E-03
  3.22198094515E-03  3.28706927778E-03  3.35347248195E-03  3.42121711983E-03
  3.49033029017E-03  3.56083963917E-03  3.63277337150E-03  3.70616026162E-03
  3.78102966526E-03  3.85741153118E-03  3.93533641314E-03  4.01483548214E-03
  4.09594053887E-03  4.17868402642E-03  4.26309904331E-03  4.34921935665E-03
  4.43707941572E-03  4.52671436573E-03  4.61816006183E-03  4.71145308354E-03
  4.80663074930E-03  4.90373113145E-03  5.00279307144E-03  5.10385619535E-03
  5.20696092980E-03  5.31214851805E-03  5.41946103654E-03  5.52894141170E-03
  5.64063343715E-03  5.75458179118E-03  5.87083205465E-03  5.98943072923E-03
  6.11042525596E-03  6.23386403426E-03  6.35979644130E-03  6.48827285171E-03
  6.61934465777E-03  6.75306428996E-03  6.88948523790E-03  7.02866207180E-03
  7.17065046425E-03  7.31550721249E-03  7.46329026116E-03  7.61405872544E-03
  7.76787291474E-03  7.92479435677E-03  8.08488582221E-03  8.24821134979E-03
  8.41483627188E-03  8.58482724067E-03  8.75825225483E-03  8.93518068667E-03
  9.11568330993E-03  9.29983232805E-03  9.48770140310E-03  9.67936568521E-03
  9.87490184266E-03  1.00743880925E-02  1.02779042319E-02  1.04855316701E-02
  1.06973534607E-02  1.09134543354E-02  1.11339207373E-02  1.13588408559E-02
  1.15883046623E-02  1.18224039452E-02  1.20612323472E-02  1.23048854030E-02
  1.25534605770E-02  1.28070573026E-02  1.30657770219E-02  1.33297232263E-02
  1.35990014976E-02  1.38737195509E-02  1.41539872770E-02  1.44399167867E-02
  1.47316224557E-02  1.50292209700E-02  1.53328313732E-02  1.56425751133E-02
  1.59585760921E-02  1.62809607141E-02  1.66098579374E-02  1.69453993254E-02
  1.72877190991E-02  1.76369541909E-02  1.79932442995E-02  1.83567319458E-02
  1.87275625296E-02  1.91058843882E-02  1.94918488552E-02  1.98856103217E-02
  2.02873262974E-02  2.06971574742E-02  2.11152677899E-02  2.15418244943E-02
  2.19769982157E-02  2.24209630294E-02  2.28738965273E-02  2.33359798888E-02
  2.38073979534E-02  2.42883392946E-02  2.47789962954E-02  2.52795652250E-02
  2.57902463179E-02  2.63112438531E-02  2.68427662367E-02  2.73850260847E-02
  2.79382403083E-02  2.85026302005E-02  2.90784215249E-02  2.96658446055E-02
  3.02651344196E-02  3.08765306910E-02  3.15002779863E-02  3.21366258128E-02
  3.27858287182E-02  3.34481463922E-02  3.41238437707E-02  3.48131911417E-02
  3.55164642534E-02  3.62339444243E-02  3.69659186562E-02  3.77126797484E-02
  3.84745264153E-02  3.92517634058E-02  4.00447016250E-02  4.08536582588E-02
  4.16789569006E-02  4.25209276809E-02  4.33799073992E-02  4.42562396589E-02
  4.51502750046E-02  4.60623710622E-02  4.69928926825E-02  4.79422120864E-02
  4.89107090144E-02  4.98987708782E-02  5.09067929156E-02  5.19351783490E-02
  5.29843385461E-02  5.40546931852E-02  5.51466704223E-02  5.62607070628E-02
  5.73972487363E-02  5.85567500747E-02  5.97396748938E-02  6.09464963794E-02
  6.21776972762E-02  6.34337700810E-02  6.47152172396E-02  6.60225513479E-02
  6.73562953571E-02  6.87169827826E-02  7.01051579174E-02  7.15213760501E-02
  7.29662036869E-02  7.44402187780E-02  7.59440109492E-02  7.74781817374E-02
  7.90433448313E-02  8.06401263171E-02  8.22691649286E-02  8.39311123031E-02
  8.56266332415E-02  8.73564059750E-02  8.91211224356E-02  9.09214885335E-02
  9.27582244391E-02  9.46320648713E-02  9.65437593912E-02  9.84940727021E-02
  1.00483784955E-01  1.02513692062E-01  1.04584606013E-01  1.06697355201E-01
  1.08852784753E-01  1.11051756871E-01  1.13295151172E-01  1.15583865044E-01
  1.17918814004E-01  1.20300932061E-01  1.22731172095E-01  1.25210506234E-01
  1.27739926246E-01  1.30320443931E-01  1.32953091531E-01  1.35638922141E-01
  1.38379010128E-01  1.41174451564E-01  1.44026364663E-01  1.46935890228E-01
  1.49904192109E-01  1.52932457665E-01  1.56021898244E-01  1.59173749662E-01
  1.62389272702E-01  1.65669753616E-01  1.69016504641E-01  1.72430864522E-01
  1.75914199047E-01  1.79467901598E-01  1.83093393702E-01  1.86792125604E-01
  1.90565576848E-01  1.94415256863E-01  1.98342705574E-01  2.02349494011E-01
  2.06437224944E-01  2.10607533519E-01  2.14862087916E-01  2.19202590012E-01
  2.23630776068E-01  2.28148417416E-01  2.32757321173E-01  2.37459330961E-01
  2.42256327649E-01  2.47150230097E-01  2.52142995933E-01  2.57236622329E-01
  2.62433146804E-01  2.67734648037E-01  2.73143246699E-01  2.78661106302E-01
  2.84290434062E-01  2.90033481787E-01  2.95892546772E-01  3.01869972720E-01
  3.07968150683E-01  3.14189520013E-01  3.20536569339E-01  3.27011837568E-01
  3.33617914891E-01  3.40357443829E-01  3.47233120282E-01  3.54247694613E-01
  3.61403972746E-01  3.68704817287E-01  3.76153148670E-01  3.83751946328E-01
  3.91504249882E-01  3.99413160356E-01  4.07481841419E-01  4.15713520653E-01
  4.24111490837E-01  4.32679111273E-01  4.41419809122E-01  4.50337080781E-01
  4.59434493276E-01  4.68715685695E-01  4.78184370638E-01  4.87844335704E-01
  4.97699445010E-01  5.07753640730E-01  5.18010944676E-01  5.28475459907E-01
  5.39151372368E-01  5.50042952567E-01  5.61154557282E-01  5.72490631301E-01
  5.84055709206E-01  5.95854417182E-01  6.07891474870E-01  6.20171697253E-01
  6.32699996584E-01  6.45481384350E-01  6.58520973276E-01  6.71823979372E-01
  6.85395724018E-01  6.99241636092E-01  7.13367254143E-01  7.27778228608E-01
  7.42480324068E-01  7.57479421558E-01  7.72781520916E-01  7.88392743186E-01
  8.04319333066E-01  8.20567661404E-01  8.37144227747E-01  8.54055662943E-01
  8.71308731792E-01  8.88910335751E-01  9.06867515697E-01  9.25187454740E-01
  9.43877481102E-01  9.62945071041E-01  9.82397851849E-01  1.00224360490E+00
  1.02249026875E+00  1.04314594234E+00  1.06421888822E+00  1.08571753584E+00
  1.10765048496E+00  1.13002650904E+00  1.15285455878E+00  1.17614376573E+00
  1.19990344586E+00
  </PP_RAB>
</PP_MESH>


<PP_NLCC>
  5.07129447157E-01  5.07129446618E-01  5.07129446056E-01  5.07129445471E-01
  5.07129444863E-01  5.07129444229E-01  5.07129443570E-01  5.07129442884E-01
  5.07129442170E-01  5.07129441427E-01  5.07129440653E-01  5.07129439848E-01
  5.07129439010E-01  5.07129438138E-01  5.07129437230E-01  5.07129436285E-01
  5.07129435302E-01  5.07129434278E-01  5.07129433213E-01  5.07129432104E-01
  5.07129430950E-01  5.07129429749E-01  5.07129428499E-01  5.07129427198E-01
  5.07129425843E-01  5.07129424434E-01  5.07129422967E-01  5.07129421440E-01
  5.07129419850E-01  5.07129418196E-01  5.07129416475E-01  5.07129414683E-01
  5.07129412818E-01  5.07129410877E-01  5.07129408856E-01  5.07129406754E-01
  5.07129404565E-01  5.07129402287E-01  5.07129399916E-01  5.07129397448E-01
  5.07129394880E-01  5.07129392207E-01  5.07129389425E-01  5.07129386529E-01
  5.07129383515E-01  5.07129380378E-01  5.07129377113E-01  5.07129373714E-01
  5.07129370177E-01  5.07129366496E-01  5.07129362664E-01  5.07129358677E-01
  5.07129354526E-01  5.07129350206E-01  5.07129345709E-01  5.07129341030E-01
  5.07129336159E-01  5.07129331089E-01  5.07129325812E-01  5.07129320321E-01
  5.07129314605E-01  5.07129308655E-01  5.07129302463E-01  5.07129296018E-01
  5.07129289311E-01  5.07129282329E-01  5.07129275063E-01  5.07129267500E-01
  5.07129259628E-01  5.07129251435E-01  5.07129242908E-01  5.07129234032E-01
  5.07129224795E-01  5.07129215180E-01  5.07129205173E-01  5.07129194758E-01
  5.07129183918E-01  5.07129172635E-01  5.07129160892E-01  5.07129148670E-01
  5.07129135948E-01  5.07129122708E-01  5.07129108927E-01  5.07129094584E-01
  5.07129079656E-01  5.07129064118E-01  5.07129047946E-01  5.07129031114E-01
  5.07129013595E-01  5.07128995362E-01  5.07128976384E-01  5.07128956632E-01
  5.07128936073E-01  5.07128914676E-01  5.07128892405E-01  5.07128869225E-01
  5.07128845100E-01  5.07128819990E-01  5.07128793855E-01  5.07128766653E-01
  5.07128738342E-01  5.07128708875E-01  5.07128678205E-01  5.07128646284E-01
  5.07128613060E-01  5.07128578480E-01  5.07128542489E-01  5.07128505029E-01
  5.07128466040E-01  5.07128425461E-01  5.07128383225E-01  5.07128339265E-01
  5.07128293511E-01  5.07128245891E-01  5.07128196326E-01  5.07128144739E-01
  5.07128091047E-01  5.07128035163E-01  5.07127976999E-01  5.07127916461E-01
  5.07127853453E-01  5.07127787873E-01  5.07127719616E-01  5.07127648574E-01
  5.07127574633E-01  5.07127497674E-01  5.07127417575E-01  5.07127334206E-01
  5.07127247436E-01  5.07127157124E-01  5.07127063126E-01  5.07126965292E-01
  5.07126863466E-01  5.07126757484E-01  5.07126647177E-01  5.07126532368E-01
  5.07126412874E-01  5.07126288503E-01  5.07126159056E-01  5.07126024327E-01
  5.07125884099E-01  5.07125738148E-01  5.07125586241E-01  5.07125428135E-01
  5.07125263576E-01  5.07125092302E-01  5.07124914038E-01  5.07124728498E-01
  5.07124535387E-01  5.07124334395E-01  5.07124125200E-01  5.07123907468E-01
  5.07123680850E-01  5.07123444984E-01  5.07123199491E-01  5.07122943981E-01
  5.07122678042E-01  5.07122401251E-01  5.07122113164E-01  5.07121813319E-01
  5.07121501238E-01  5.07121176421E-01  5.07120838348E-01  5.07120486478E-01
  5.07120120248E-01  5.07119739072E-01  5.07119342340E-01  5.07118929418E-01
  5.07118499644E-01  5.07118052330E-01  5.07117586762E-01  5.07117102194E-01
  5.07116597851E-01  5.07116072925E-01  5.07115526577E-01  5.07114957933E-01
  5.07114366082E-01  5.07113750077E-01  5.07113108934E-01  5.07112441625E-01
  5.07111747084E-01  5.07111024198E-01  5.07110271812E-01  5.07109488721E-01
  5.07108673672E-01  5.07107825361E-01  5.07106942431E-01  5.07106023469E-01
  5.07105067004E-01  5.07104071506E-01  5.07103035383E-01  5.07101956976E-01
  5.07100834559E-01  5.07099666338E-01  5.07098450442E-01  5.07097184927E-01
  5.07095867767E-01  5.07094496854E-01  5.07093069996E-01  5.07091584910E-01
  5.07090039218E-01  5.07088430449E-01  5.07086756028E-01  5.07085013276E-01
  5.07083199405E-01  5.07081311513E-01  5.07079346578E-01  5.07077301458E-01
  5.07075172881E-01  5.07072957440E-01  5.07070651591E-01  5.07068251646E-01
  5.07065753764E-01  5.07063153950E-01  5.07060448043E-01  5.07057631716E-01
  5.07054700462E-01  5.07051649592E-01  5.07048474226E-01  5.07045169283E-01
  5.07041729476E-01  5.07038149304E-01  5.07034423037E-01  5.07030544717E-01
  5.07026508138E-01  5.07022306843E-01  5.07017934113E-01  5.07013382952E-01