<PP_INFO>
Generated using "atomic" code by A. Dal Corso  (espresso distribution)     
Author: Hande Ustunel   Generation date: 10Mar2006                             
    1        The Pseudo was generated with a Scalar-Relativistic Calculation
    1 3.0000000E+00    L component and cutoff radius for Local Potential
nl pn  l   occ               Rcut            Rcut US             E pseu
4D  3  2 10.00      1.00000000000      2.00000000000     -1.37524736006
4D  3  2  0.00      1.00000000000      2.00000000000      1.50000000000
5S  1  0  0.00      2.00000000000      2.50000000000     -0.35000000000
5S  1  0  2.00      2.00000000000      2.50000000000     -0.62374923652
5P  2  1  1.00      3.00000000000      3.00000000000     -0.19866755225
</PP_INFO>


<PP_HEADER>
   0                   Version Number
  In                   Element
   US                  Ultrasoft pseudopotential
    T                  Nonlinear Core Correction
 SLA  PW   PBE  PBE    PBE  Exchange-Correlation functional
   13.00000000000      Z valence
 -114.86650168195      Total energy
 30.00000  300.0000000 Suggested cutoff for wfc and rho
    2                  Max angular momentum component
 1241                  Number of points in mesh
    3    4             Number of Wavefunctions, Number of Projectors
 Wavefunctions         nl  l   occ
                       4D  2 10.00
                       5S  0  2.00
                       5P  1  1.00
</PP_HEADER>


<PP_MESH>
  <PP_R>
  1.86098360317E-05  1.88439189524E-05  1.90809462738E-05  1.93209550319E-05
  1.95639827284E-05  1.98100673371E-05  2.00592473092E-05  2.03115615794E-05
  2.05670495724E-05  2.08257512088E-05  2.10877069112E-05  2.13529576107E-05
  2.16215447532E-05  2.18935103061E-05  2.21688967646E-05  2.24477471582E-05
  2.27301050581E-05  2.30160145830E-05  2.33055204071E-05  2.35986677662E-05
  2.38955024651E-05  2.41960708849E-05  2.45004199900E-05  2.48085973356E-05
  2.51206510750E-05  2.54366299672E-05  2.57565833846E-05  2.60805613205E-05
  2.64086143973E-05  2.67407938737E-05  2.70771516536E-05  2.74177402935E-05
  2.77626130112E-05  2.81118236936E-05  2.84654269056E-05  2.88234778985E-05
  2.91860326185E-05  2.95531477155E-05  2.99248805519E-05  3.03012892118E-05
  3.06824325097E-05  3.10683700002E-05  3.14591619867E-05  3.18548695313E-05
  3.22555544640E-05  3.26612793927E-05  3.30721077128E-05  3.34881036171E-05
  3.39093321056E-05  3.43358589963E-05  3.47677509347E-05  3.52050754051E-05
  3.56479007400E-05  3.60962961320E-05  3.65503316437E-05  3.70100782191E-05
  3.74756076945E-05  3.79469928098E-05  3.84243072200E-05  3.89076255063E-05
  3.93970231883E-05  3.98925767353E-05  4.03943635786E-05  4.09024621234E-05
  4.14169517611E-05  4.19379128818E-05  4.24654268867E-05  4.29995762010E-05
  4.35404442865E-05  4.40881156550E-05  4.46426758813E-05  4.52042116165E-05
  4.57728106018E-05  4.63485616818E-05  4.69315548189E-05  4.75218811069E-05
  4.81196327855E-05  4.87249032547E-05  4.93377870891E-05  4.99583800531E-05
  5.05867791156E-05  5.12230824653E-05  5.18673895259E-05  5.25198009716E-05
  5.31804187430E-05  5.38493460631E-05  5.45266874531E-05  5.52125487488E-05
  5.59070371177E-05  5.66102610749E-05  5.73223305005E-05  5.80433566569E-05
  5.87734522059E-05  5.95127312263E-05  6.02613092321E-05  6.10193031901E-05
  6.17868315383E-05  6.25640142046E-05  6.33509726255E-05  6.41478297647E-05
  6.49547101329E-05  6.57717398066E-05  6.65990464485E-05  6.74367593269E-05
  6.82850093361E-05  6.91439290170E-05  7.00136525775E-05  7.08943159136E-05
  7.17860566309E-05  7.26890140655E-05  7.36033293064E-05  7.45291452174E-05
  7.54666064588E-05  7.64158595111E-05  7.73770526969E-05  7.83503362046E-05
  7.93358621118E-05  8.03337844088E-05  8.13442590230E-05  8.23674438433E-05
  8.34034987442E-05  8.44525856114E-05  8.55148683670E-05  8.65905129948E-05
  8.76796875664E-05  8.87825622675E-05  8.98993094247E-05  9.10301035318E-05
  9.21751212778E-05  9.33345415741E-05  9.45085455823E-05  9.56973167431E-05
  9.69010408043E-05  9.81199058503E-05  9.93541023312E-05  1.00603823093E-04
  1.01869263406E-04  1.03150621000E-04  1.04448096087E-04  1.05761891402E-04
  1.07092212228E-04  1.08439266430E-04  1.09803264488E-04  1.11184419529E-04
  1.12582947362E-04  1.13999066510E-04  1.15432998244E-04  1.16884966619E-04
  1.18355198507E-04  1.19843923636E-04  1.21351374622E-04  1.22877787007E-04
  1.24423399296E-04  1.25988452995E-04  1.27573192645E-04  1.29177865867E-04
  1.30802723393E-04  1.32448019111E-04  1.34114010101E-04  1.35800956678E-04
  1.37509122430E-04  1.39238774263E-04  1.40990182438E-04  1.42763620615E-04
  1.44559365899E-04  1.46377698878E-04  1.48218903670E-04  1.50083267967E-04
  1.51971083080E-04  1.53882643984E-04  1.55818249364E-04  1.57778201663E-04
  1.59762807127E-04  1.61772375854E-04  1.63807221845E-04  1.65867663047E-04
  1.67954021409E-04  1.70066622928E-04  1.72205797703E-04  1.74371879985E-04
  1.76565208227E-04  1.78786125142E-04  1.81034977754E-04  1.83312117448E-04
  1.85617900035E-04  1.87952685795E-04  1.90316839545E-04  1.92710730689E-04
  1.95134733276E-04  1.97589226063E-04  2.00074592568E-04  2.02591221135E-04
  2.05139504993E-04  2.07719842315E-04  2.10332636286E-04  2.12978295159E-04
  2.15657232324E-04  2.18369866370E-04  2.21116621152E-04  2.23897925856E-04
  2.26714215066E-04  2.29565928834E-04  2.32453512745E-04  2.35377417991E-04
  2.38338101437E-04  2.41336025696E-04  2.44371659200E-04  2.47445476273E-04
  2.50557957205E-04  2.53709588328E-04  2.56900862090E-04  2.60132277135E-04
  2.63404338377E-04  2.66717557083E-04  2.70072450950E-04  2.73469544187E-04
  2.76909367596E-04  2.80392458657E-04  2.83919361611E-04  2.87490627542E-04
  2.91106814469E-04  2.94768487428E-04  2.98476218563E-04  3.02230587214E-04
  3.06032180010E-04  3.09881590956E-04  3.13779421531E-04  3.17726280779E-04
  3.21722785405E-04  3.25769559871E-04  3.29867236493E-04  3.34016455542E-04
  3.38217865342E-04  3.42472122371E-04  3.46779891367E-04  3.51141845426E-04
  3.55558666112E-04  3.60031043564E-04  3.64559676598E-04  3.69145272824E-04
  3.73788548750E-04  3.78490229897E-04  3.83251050912E-04  3.88071755684E-04
  3.92953097457E-04  3.97895838951E-04  4.02900752479E-04  4.07968620070E-04
  4.13100233588E-04  4.18296394857E-04  4.23557915790E-04  4.28885618508E-04
  4.34280335477E-04  4.39742909632E-04  4.45274194511E-04  4.50875054389E-04
  4.56546364412E-04  4.62289010732E-04  4.68103890652E-04  4.73991912756E-04
  4.79953997061E-04  4.85991075155E-04  4.92104090343E-04  4.98293997797E-04
  5.04561764701E-04  5.10908370407E-04  5.17334806586E-04  5.23842077381E-04
  5.30431199566E-04  5.37103202706E-04  5.43859129313E-04  5.50700035016E-04
  5.57626988720E-04  5.64641072776E-04  5.71743383147E-04  5.78935029586E-04
  5.86217135801E-04  5.93590839636E-04  6.01057293247E-04  6.08617663283E-04
  6.16273131068E-04  6.24024892783E-04  6.31874159657E-04  6.39822158154E-04
  6.47870130165E-04  6.56019333202E-04  6.64271040594E-04  6.72626541688E-04
  6.81087142047E-04  6.89654163659E-04  6.98328945136E-04  7.07112841932E-04
  7.16007226548E-04  7.25013488750E-04  7.34133035784E-04  7.43367292599E-04
  7.52717702066E-04  7.62185725205E-04  7.71772841415E-04  7.81480548701E-04
  7.91310363913E-04  8.01263822979E-04  8.11342481147E-04  8.21547913229E-04
  8.31881713844E-04  8.42345497669E-04  8.52940899692E-04  8.63669575466E-04
  8.74533201368E-04  8.85533474862E-04  8.96672114763E-04  9.07950861507E-04
  9.19371477420E-04  9.30935746996E-04  9.42645477177E-04  9.54502497632E-04
  9.66508661044E-04  9.78665843400E-04  9.90975944286E-04  1.00344088718E-03
  1.01606261975E-03  1.02884311418E-03  1.04178436743E-03  1.05488840161E-03
  1.06815726425E-03  1.08159302864E-03  1.09519779414E-03  1.10897368652E-03
  1.12292285829E-03  1.13704748905E-03  1.15134978579E-03  1.16583198328E-03
  1.18049634438E-03  1.19534516045E-03  1.21038075162E-03  1.22560546725E-03
  1.24102168623E-03  1.25663181737E-03  1.27243829979E-03  1.28844360328E-03
  1.30465022871E-03  1.32106070839E-03  1.33767760649E-03  1.35450351944E-03
  1.37154107632E-03  1.38879293929E-03  1.40626180397E-03  1.42395039993E-03
  1.44186149103E-03  1.45999787592E-03  1.47836238845E-03  1.49695789812E-03
  1.51578731050E-03  1.53485356773E-03  1.55415964895E-03  1.57370857078E-03
  1.59350338778E-03  1.61354719292E-03  1.63384311810E-03  1.65439433458E-03
  1.67520405355E-03  1.69627552656E-03  1.71761204607E-03  1.73921694595E-03
  1.76109360203E-03  1.78324543256E-03  1.80567589882E-03  1.82838850561E-03
  1.85138680182E-03  1.87467438099E-03  1.89825488185E-03  1.92213198889E-03
  1.94630943297E-03  1.97079099186E-03  1.99558049084E-03  2.02068180334E-03
  2.04609885149E-03  2.07183560674E-03  2.09789609052E-03  2.12428437483E-03
  2.15100458290E-03  2.17806088980E-03  2.20545752316E-03  2.23319876374E-03
  2.26128894617E-03  2.28973245960E-03  2.31853374838E-03  2.34769731278E-03
  2.37722770966E-03  2.40712955321E-03  2.43740751565E-03  2.46806632797E-03
  2.49911078067E-03  2.53054572452E-03  2.56237607129E-03  2.59460679453E-03
  2.62724293036E-03  2.66028957825E-03  2.69375190179E-03  2.72763512955E-03
  2.76194455585E-03  2.79668554160E-03  2.83186351516E-03  2.86748397316E-03
  2.90355248136E-03  2.94007467554E-03  2.97705626237E-03  3.01450302030E-03
  3.05242080046E-03  3.09081552758E-03  3.12969320092E-03  3.16905989518E-03
  3.20892176150E-03  3.24928502838E-03  3.29015600265E-03  3.33154107049E-03
  3.37344669840E-03  3.41587943422E-03  3.45884590815E-03  3.50235283379E-03
  3.54640700919E-03  3.59101531790E-03  3.63618473006E-03  3.68192230348E-03
  3.72823518475E-03  3.77513061035E-03  3.82261590780E-03  3.87069849675E-03
  3.91938589022E-03  3.96868569571E-03  4.01860561641E-03  4.06915345242E-03
  4.12033710193E-03  4.17216456250E-03  4.22464393227E-03  4.27778341125E-03
  4.33159130259E-03  4.38607601388E-03  4.44124605847E-03  4.49711005680E-03
  4.55367673772E-03  4.61095493990E-03  4.66895361317E-03  4.72768181994E-03
  4.78714873661E-03  4.84736365501E-03  4.90833598384E-03  4.97007525016E-03
  5.03259110085E-03  5.09589330413E-03  5.15999175112E-03  5.22489645731E-03
  5.29061756420E-03  5.35716534085E-03  5.42455018549E-03  5.49278262713E-03
  5.56187332722E-03  5.63183308135E-03  5.70267282085E-03  5.77440361457E-03
  5.84703667062E-03  5.92058333803E-03  5.99505510864E-03  6.07046361881E-03
  6.14682065127E-03  6.22413813696E-03  6.30242815690E-03  6.38170294406E-03
  6.46197488529E-03  6.54325652324E-03  6.62556055833E-03  6.70889985075E-03
  6.79328742241E-03  6.87873645905E-03  6.96526031227E-03  7.05287250157E-03
  7.14158671655E-03  7.23141681899E-03  7.32237684502E-03  7.41448100733E-03
  7.50774369738E-03  7.60217948765E-03  7.69780313394E-03  7.79462957763E-03
  7.89267394805E-03  7.99195156483E-03  8.09247794031E-03  8.19426878192E-03
  8.29733999471E-03  8.40170768375E-03  8.50738815670E-03  8.61439792637E-03
  8.72275371324E-03  8.83247244812E-03  8.94357127479E-03  9.05606755268E-03
  9.16997885954E-03  9.28532299425E-03  9.40211797957E-03  9.52038206496E-03
  9.64013372941E-03  9.76139168437E-03  9.88417487664E-03  1.00085024913E-02
  1.01343939549E-02  1.02618689382E-02  1.03909473593E-02  1.05216493872E-02
  1.06539954441E-02  1.07880062095E-02  1.09237026228E-02  1.10611058869E-02
  1.12002374713E-02  1.13411191156E-02  1.14837728328E-02  1.16282209129E-02
  1.17744859261E-02  1.19225907268E-02  1.20725584565E-02  1.22244125480E-02
  1.23781767288E-02  1.25338750250E-02  1.26915317646E-02  1.28511715819E-02
  1.30128194209E-02  1.31765005393E-02  1.33422405129E-02  1.35100652386E-02
  1.36800009395E-02  1.38520741684E-02  1.40263118121E-02  1.42027410955E-02
  1.43813895861E-02  1.45622851981E-02  1.47454561968E-02  1.49309312030E-02
  1.51187391976E-02  1.53089095259E-02  1.55014719026E-02  1.56964564157E-02
  1.58938935321E-02  1.60938141017E-02  1.62962493624E-02  1.65012309453E-02
  1.67087908791E-02  1.69189615955E-02  1.71317759341E-02  1.73472671475E-02
  1.75654689066E-02  1.77864153061E-02  1.80101408691E-02  1.82366805532E-02
  1.84660697558E-02  1.86983443194E-02  1.89335405373E-02  1.91716951595E-02
  1.94128453980E-02  1.96570289331E-02  1.99042839189E-02  2.01546489897E-02
  2.04081632653E-02  2.06648663580E-02  2.09247983780E-02  2.11879999404E-02
  2.14545121709E-02  2.17243767126E-02  2.19976357323E-02  2.22743319274E-02
  2.25545085322E-02  2.28382093248E-02  2.31254786340E-02  2.34163613464E-02
  2.37109029128E-02  2.40091493561E-02  2.43111472778E-02  2.46169438657E-02
  2.49265869012E-02  2.52401247666E-02  2.55576064529E-02  2.58790815672E-02
  2.62046003406E-02  2.65342136361E-02  2.68679729565E-02  2.72059304523E-02
  2.75481389301E-02  2.78946518607E-02  2.82455233874E-02  2.86008083345E-02
  2.89605622162E-02  2.93248412446E-02  2.96937023391E-02  3.00672031351E-02
  3.04454019927E-02  3.08283580063E-02  3.12161310135E-02  3.16087816048E-02
  3.20063711325E-02  3.24089617207E-02  3.28166162752E-02  3.32293984928E-02
  3.36473728714E-02  3.40706047206E-02  3.44991601710E-02  3.49331061854E-02
  3.53725105687E-02  3.58174419788E-02  3.62679699370E-02  3.67241648394E-02
  3.71860979672E-02  3.76538414984E-02  3.81274685190E-02  3.86070530342E-02
  3.90926699799E-02  3.95843952348E-02  4.00823056320E-02  4.05864789711E-02
  4.10969940300E-02  4.16139305779E-02  4.21373693871E-02  4.26673922460E-02
  4.32040819717E-02  4.37475224231E-02  4.42977985139E-02  4.48549962259E-02
  4.54192026223E-02  4.59905058615E-02  4.65689952108E-02  4.71547610604E-02
  4.77478949373E-02  4.83484895199E-02  4.89566386524E-02  4.95724373593E-02
  5.01959818603E-02  5.08273695857E-02  5.14666991910E-02  5.21140705727E-02
  5.27695848840E-02  5.34333445503E-02  5.41054532854E-02  5.47860161076E-02
  5.54751393563E-02  5.61729307084E-02  5.68794991952E-02  5.75949552195E-02
  5.83194105727E-02  5.90529784525E-02  5.97957734803E-02  6.05479117193E-02
  6.13095106928E-02  6.20806894020E-02  6.28615683453E-02  6.36522695365E-02
  6.44529165243E-02  6.52636344114E-02  6.60845498742E-02  6.69157911824E-02
  6.77574882191E-02  6.86097725012E-02  6.94727771998E-02  7.03466371612E-02
  7.12314889278E-02  7.21274707594E-02  7.30347226551E-02  7.39533863748E-02
  7.48836054616E-02  7.58255252641E-02  7.67792929592E-02  7.77450575750E-02
  7.87229700142E-02  7.97131830777E-02  8.07158514882E-02  8.17311319147E-02
  8.27591829968E-02  8.38001653697E-02  8.48542416889E-02  8.59215766560E-02
  8.70023370443E-02  8.80966917247E-02  8.92048116924E-02  9.03268700935E-02
  9.14630422518E-02  9.26135056965E-02  9.37784401899E-02  9.49580277554E-02
  9.61524527059E-02  9.73619016728E-02  9.85865636349E-02  9.98266299481E-02
  1.01082294375E-01  1.02353753117E-01  1.03641204840E-01  1.04944850713E-01
  1.06264894432E-01  1.07601542257E-01  1.08955003042E-01  1.10325488268E-01
  1.11713212076E-01  1.13118391301E-01  1.14541245504E-01  1.15981997010E-01
  1.17440870939E-01  1.18918095243E-01  1.20413900741E-01  1.21928521156E-01
  1.23462193151E-01  1.25015156365E-01  1.26587653451E-01  1.28179930116E-01
  1.29792235155E-01  1.31424820495E-01  1.33077941231E-01  1.34751855666E-01
  1.36446825353E-01  1.38163115133E-01  1.39900993182E-01  1.41660731045E-01
  1.43442603685E-01  1.45246889525E-01  1.47073870486E-01  1.48923832039E-01
  1.50797063243E-01  1.52693856796E-01  1.54614509074E-01  1.56559320184E-01
  1.58528594006E-01  1.60522638244E-01  1.62541764470E-01  1.64586288178E-01
  1.66656528828E-01  1.68752809900E-01  1.70875458941E-01  1.73024807621E-01
  1.75201191779E-01  1.77404951480E-01  1.79636431065E-01  1.81895979208E-01
  1.84183948968E-01  1.86500697845E-01  1.88846587835E-01  1.91221985489E-01
  1.93627261967E-01  1.96062793098E-01  1.98528959440E-01  2.01026146336E-01
  2.03554743976E-01  2.06115147459E-01  2.08707756853E-01  2.11332977259E-01
  2.13991218872E-01  2.16682897049E-01  2.19408432369E-01  2.22168250703E-01
  2.24962783278E-01  2.27792466746E-01  2.30657743251E-01  2.33559060497E-01
  2.36496871821E-01  2.39471636263E-01  2.42483818635E-01  2.45533889597E-01
  2.48622325729E-01  2.51749609605E-01  2.54916229870E-01  2.58122681314E-01
  2.61369464952E-01  2.64657088101E-01  2.67986064459E-01  2.71356914184E-01
  2.74770163980E-01  2.78226347172E-01  2.81726003797E-01  2.85269680684E-01
  2.88857931538E-01  2.92491317032E-01  2.96170404890E-01  2.99895769975E-01
  3.03667994385E-01  3.07487667537E-01  3.11355386262E-01  3.15271754900E-01
  3.19237385392E-01  3.23252897374E-01  3.27318918279E-01  3.31436083431E-01
  3.35605036145E-01  3.39826427829E-01  3.44100918083E-01  3.48429174807E-01
  3.52811874297E-01  3.57249701361E-01  3.61743349418E-01  3.66293520608E-01
  3.70900925907E-01  3.75566285230E-01  3.80290327549E-01  3.85073791005E-01
  3.89917423025E-01  3.94821980436E-01  3.99788229584E-01  4.04816946456E-01
  4.09908916800E-01  4.15064936246E-01  4.20285810433E-01  4.25572355132E-01
  4.30925396378E-01  4.36345770594E-01  4.41834324725E-01  4.47391916367E-01
  4.53019413907E-01  4.58717696652E-01  4.64487654970E-01  4.70330190429E-01
  4.76246215938E-01  4.82236655886E-01  4.88302446293E-01  4.94444534951E-01
  5.00663881574E-01  5.06961457946E-01  5.13338248078E-01  5.19795248355E-01
  5.26333467698E-01  5.32953927715E-01  5.39657662869E-01  5.46445720630E-01
  5.53319161646E-01  5.60279059907E-01  5.67326502912E-01  5.74462591836E-01
  5.81688441710E-01  5.89005181585E-01  5.96413954719E-01  6.03915918747E-01
  6.11512245865E-01  6.19204123016E-01  6.26992752071E-01  6.34879350020E-01
  6.42865149158E-01  6.50951397284E-01  6.59139357890E-01  6.67430310362E-01
  6.75825550177E-01  6.84326389110E-01  6.92934155434E-01  7.01650194129E-01
  7.10475867094E-01  7.19412553359E-01  7.28461649299E-01  7.37624568854E-01
  7.46902743749E-01  7.56297623716E-01  7.65810676727E-01  7.75443389213E-01
  7.85197266307E-01  7.95073832071E-01  8.05074629739E-01  8.15201221956E-01
  8.25455191022E-01  8.35838139141E-01  8.46351688670E-01  8.56997482372E-01
  8.67777183675E-01  8.78692476928E-01  8.89745067668E-01  9.00936682885E-01
  9.12269071292E-01  9.23744003597E-01  9.35363272782E-01  9.47128694382E-01
  9.59042106767E-01  9.71105371432E-01  9.83320373288E-01  9.95689020952E-01
  1.00821324705E+00  1.02089500852E+00  1.03373628692E+00  1.04673908871E+00
  1.05990544561E+00  1.07323741489E+00  1.08673707971E+00  1.10040654940E+00
  1.11424795986E+00  1.12826347383E+00  1.14245528126E+00  1.15682559965E+00
  1.17137667440E+00  1.18611077913E+00  1.20103021609E+00  1.21613731646E+00
  1.23143444076E+00  1.24692397920E+00  1.26260835205E+00  1.27849001002E+00
  1.29457143466E+00  1.31085513871E+00  1.32734366655E+00  1.34403959454E+00
  1.36094553145E+00  1.37806411886E+00  1.39539803160E+00  1.41294997812E+00
  1.43072270095E+00  1.44871897711E+00  1.46694161856E+00  1.48539347263E+00
  1.50407742244E+00  1.52299638741E+00  1.54215332367E+00  1.56155122452E+00
  1.58119312092E+00  1.60108208197E+00  1.62122121535E+00  1.64161366785E+00
  1.66226262582E+00  1.68317131570E+00  1.70434300453E+00  1.72578100042E+00
  1.74748865311E+00  1.76946935445E+00  1.79172653897E+00  1.81426368442E+00
  1.83708431226E+00  1.86019198825E+00  1.88359032303E+00  1.90728297263E+00
  1.93127363908E+00  1.95556607096E+00  1.98016406402E+00  2.00507146174E+00
  2.03029215596E+00  2.05583008745E+00  2.08168924659E+00  2.10787367390E+00
  2.13438746076E+00  2.16123475000E+00  2.18841973657E+00  2.21594666818E+00
  2.24381984596E+00  2.27204362516E+00  2.30062241580E+00  2.32956068337E+00
  2.35886294953E+00  2.38853379284E+00  2.41857784940E+00  2.44899981368E+00
  2.47980443916E+00  2.51099653913E+00  2.54258098741E+00  2.57456271915E+00
  2.60694673155E+00  2.63973808468E+00  2.67294190226E+00  2.70656337245E+00
  2.74060774867E+00  2.77508035043E+00  2.80998656414E+00  2.84533184397E+00
  2.88112171268E+00  2.91736176253E+00  2.95405765609E+00  2.99121512716E+00
  3.02883998169E+00  3.06693809862E+00  3.10551543087E+00  3.14457800623E+00
  3.18413192829E+00  3.22418337745E+00  3.26473861182E+00  3.30580396825E+00
  3.34738586326E+00  3.38949079413E+00  3.43212533983E+00  3.47529616210E+00
  3.51901000647E+00  3.56327370330E+00  3.60809416891E+00  3.65347840656E+00
  3.69943350766E+00  3.74596665276E+00  3.79308511277E+00  3.84079625006E+00
  3.88910751956E+00  3.93802647004E+00  3.98756074515E+00  4.03771808475E+00
  4.08850632602E+00  4.13993340471E+00  4.19200735642E+00  4.24473631781E+00
  4.29812852789E+00  4.35219232929E+00  4.40693616960E+00  4.46236860266E+00
  4.51849828988E+00  4.57533400166E+00  4.63288461868E+00  4.69115913335E+00
  4.75016665118E+00  4.80991639221E+00  4.87041769246E+00  4.93168000539E+00
  4.99371290335E+00  5.05652607911E+00  5.12012934736E+00  5.18453264624E+00
  5.24974603889E+00  5.31577971504E+00  5.38264399259E+00  5.45034931921E+00
  5.51890627400E+00  5.58832556913E+00  5.65861805149E+00  5.72979470444E+00
  5.80186664947E+00  5.87484514796E+00  5.94874160297E+00  6.02356756095E+00
  6.09933471361E+00  6.17605489974E+00  6.25374010701E+00  6.33240247389E+00
  6.41205429154E+00  6.49270800573E+00  6.57437621874E+00  6.65707169142E+00
  6.74080734509E+00  6.82559626363E+00  6.91145169547E+00  6.99838705569E+00
  7.08641592814E+00  7.17555206749E+00  7.26580940144E+00  7.35720203290E+00
  7.44974424215E+00  7.54345048909E+00  7.63833541552E+00  7.73441384739E+00
  7.83170079717E+00  7.93021146612E+00  8.02996124676E+00  8.13096572517E+00
  8.23324068353E+00  8.33680210249E+00  8.44166616374E+00  8.54784925250E+00
  8.65536796010E+00  8.76423908655E+00  8.87447964319E+00  8.98610685533E+00
  9.09913816495E+00  9.21359123342E+00  9.32948394426E+00  9.44683440596E+00
  9.56566095474E+00  9.68598215752E+00  9.80781681471E+00  9.93118396323E+00
  1.00561028795E+01  1.01825930822E+01  1.03106743359E+01  1.04403666533E+01
  1.05716902994E+01  1.07046657935E+01  1.08393139134E+01  1.09756556982E+01
  1.11137124515E+01  1.12535057451E+01  1.13950574217E+01  1.15383895993E+01
  1.16835246737E+01  1.18304853227E+01  1.19792945090E+01  1.21299754845E+01
  1.22825517933E+01  1.24370472758E+01  1.25934860723E+01  1.27518926266E+01
  1.29122916900E+01  1.30747083253E+01  1.32391679104E+01  1.34056961424E+01
  1.35743190417E+01  1.37450629560E+01  1.39179545643E+01  1.40930208813E+01
  1.42702892615E+01  1.44497874035E+01  1.46315433541E+01  1.48155855132E+01
  1.50019426376E+01  1.51906438461E+01  1.53817186236E+01  1.55751968259E+01
  1.57711086844E+01  1.59694848107E+01  1.61703562015E+01  1.63737542434E+01
  1.65797107177E+01  1.67882578055E+01  1.69994280928E+01  1.72132545753E+01
  1.74297706638E+01  1.76490101895E+01  1.78710074089E+01  1.80957970095E+01
  1.83234141153E+01  1.85538942918E+01  1.87872735521E+01  1.90235883620E+01
  1.92628756464E+01  1.95051727942E+01  1.97505176650E+01  1.99989485943E+01
  2.02505044001E+01  2.05052243884E+01  2.07631483597E+01  2.10243166151E+01
  2.12887699629E+01  2.15565497242E+01  2.18276977403E+01  2.21022563786E+01
  2.23802685394E+01  2.26617776626E+01  2.29468277348E+01  2.32354632955E+01
  2.35277294446E+01  2.38236718492E+01  2.41233367511E+01  2.44267709734E+01
  2.47340219284E+01  2.50451376247E+01  2.53601666746E+01  2.56791583022E+01
  2.60021623505E+01  2.63292292896E+01  2.66604102243E+01  2.69957569023E+01
  2.73353217223E+01  2.76791577420E+01  2.80273186863E+01  2.83798589562E+01
  2.87368336368E+01  2.90982985062E+01  2.94643100438E+01  2.98349254399E+01
  3.02102026038E+01  3.05902001733E+01  3.09749775237E+01  3.13645947775E+01
  3.17591128130E+01  3.21585932745E+01  3.25630985816E+01  3.29726919391E+01
  3.33874373469E+01  3.38073996096E+01  3.42326443473E+01  3.46632380053E+01
  3.50992478648E+01  3.55407420532E+01  3.59877895548E+01  3.64404602218E+01
  3.68988247848E+01  3.73629548643E+01  3.78329229815E+01  3.83088025698E+01
  3.87906679865E+01  3.92785945240E+01  3.97726584218E+01  4.02729368784E+01
  4.07795080633E+01  4.12924511294E+01  4.18118462249E+01  4.23377745065E+01
  4.28703181514E+01  4.34095603708E+01  4.39555854224E+01  4.45084786235E+01
  4.50683263650E+01  4.56352161242E+01  4.62092364788E+01  4.67904771206E+01
  4.73790288696E+01  4.79749836883E+01  4.85784346958E+01  4.91894761825E+01
  4.98082036250E+01  5.04347137006E+01  5.10691043029E+01  5.17114745566E+01
  5.23619248334E+01  5.30205567675E+01  5.36874732714E+01  5.43627785523E+01
  5.50465781279E+01  5.57389788434E+01  5.64400888877E+01  5.71500178107E+01
  5.78688765403E+01  5.85967773996E+01  5.93338341245E+01  6.00801618818E+01
  6.08358772866E+01  6.16010984209E+01  6.23759448523E+01  6.31605376519E+01
  6.39549994140E+01  6.47594542750E+01  6.55740279324E+01  6.63988476650E+01
  6.72340423527E+01  6.80797424963E+01  6.89360802382E+01  6.98031893829E+01
  7.06812054179E+01  7.15702655351E+01  7.24705086519E+01  7.33820754331E+01
  7.43051083129E+01  7.52397515170E+01  7.61861510854E+01  7.71444548949E+01
  7.81148126824E+01  7.90973760684E+01  8.00922985802E+01  8.10997356767E+01
  8.21198447719E+01  8.31527852599E+01  8.41987185397E+01  8.52578080407E+01
  8.63302192476E+01  8.74161197269E+01  8.85156791527E+01  8.96290693335E+01
  9.07564642388E+01  9.18980400262E+01  9.30539750693E+01  9.42244499854E+01
  9.54096476635E+01  9.66097532932E+01  9.78249543933E+01  9.90554408416E+01
  1.00301404904E+02
  </PP_R>
  <PP_RAB>
  2.32622950397E-07  2.35548986905E-07  2.38511828423E-07  2.41511937898E-07
  2.44549784106E-07  2.47625841714E-07  2.50740591364E-07  2.53894519742E-07
  2.57088119655E-07  2.60321890110E-07  2.63596336390E-07  2.66911970133E-07
  2.70269309415E-07  2.73668878827E-07  2.77111209557E-07  2.80596839478E-07
  2.84126313226E-07  2.87700182288E-07  2.91319005089E-07  2.94983347078E-07
  2.98693780814E-07  3.02450886062E-07  3.06255249875E-07  3.10107466695E-07
  3.14008138437E-07  3.17957874590E-07  3.21957292307E-07  3.26007016507E-07
  3.30107679966E-07  3.34259923421E-07  3.38464395670E-07  3.42721753669E-07
  3.47032662640E-07  3.51397796170E-07  3.55817836320E-07  3.60293473732E-07
  3.64825407732E-07  3.69414346444E-07  3.74061006899E-07  3.78766115147E-07
  3.83530406372E-07  3.88354625003E-07  3.93239524834E-07  3.98185869141E-07
  4.03194430800E-07  4.08265992409E-07  4.13401346411E-07  4.18601295213E-07
  4.23866651320E-07  4.29198237453E-07  4.34596886684E-07  4.40063442563E-07
  4.45598759250E-07  4.51203701650E-07  4.56879145546E-07  4.62625977738E-07
  4.68445096181E-07  4.74337410123E-07  4.80303840250E-07  4.86345318829E-07
  4.92462789854E-07  4.98657209192E-07  5.04929544733E-07  5.11280776543E-07
  5.17711897014E-07  5.24223911023E-07  5.30817836084E-07  5.37494702512E-07
  5.44255553581E-07  5.51101445687E-07  5.58033448516E-07  5.65052645206E-07
  5.72160132522E-07  5.79357021022E-07  5.86644435236E-07  5.94023513836E-07
  6.01495409819E-07  6.09061290683E-07  6.16722338613E-07  6.24479750664E-07
  6.32334738945E-07  6.40288530817E-07  6.48342369074E-07  6.56497512145E-07
  6.64755234288E-07  6.73116825789E-07  6.81583593163E-07  6.90156859361E-07
  6.98837963972E-07  7.07628263436E-07  7.16529131257E-07  7.25541958211E-07
  7.34668152574E-07  7.43909140329E-07  7.53266365401E-07  7.62741289876E-07
  7.72335394229E-07  7.82050177558E-07  7.91887157819E-07  8.01847872059E-07
  8.11933876661E-07  8.22146747582E-07  8.32488080606E-07  8.42959491586E-07
  8.53562616702E-07  8.64299112713E-07  8.75170657219E-07  8.86178948920E-07
  8.97325707886E-07  9.08612675819E-07  9.20041616331E-07  9.31614315217E-07
  9.43332580735E-07  9.55198243889E-07  9.67213158711E-07  9.79379202558E-07
  9.91698276397E-07  1.00417230511E-06  1.01680323779E-06  1.02959304804E-06
  1.04254373430E-06  1.05565732014E-06  1.06893585459E-06  1.08238141243E-06
  1.09599609458E-06  1.10978202834E-06  1.12374136781E-06  1.13787629415E-06
  1.15218901597E-06  1.16668176968E-06  1.18135681978E-06  1.19621645929E-06
  1.21126301005E-06  1.22649882313E-06  1.24192627914E-06  1.25754778866E-06
  1.27336579258E-06  1.28938276249E-06  1.30560120109E-06  1.32202364253E-06
  1.33865265285E-06  1.35549083038E-06  1.37254080610E-06  1.38980524412E-06
  1.40728684203E-06  1.42498833138E-06  1.44291247805E-06  1.46106208273E-06
  1.47943998134E-06  1.49804904545E-06  1.51689218277E-06  1.53597233759E-06
  1.55529249120E-06  1.57485566244E-06  1.59466490807E-06  1.61472332334E-06
  1.63503404241E-06  1.65560023888E-06  1.67642512626E-06  1.69751195847E-06
  1.71886403038E-06  1.74048467829E-06  1.76237728047E-06  1.78454525769E-06
  1.80699207374E-06  1.82972123597E-06  1.85273629587E-06  1.87604084959E-06
  1.89963853850E-06  1.92353304980E-06  1.94772811706E-06  1.97222752079E-06
  1.99703508909E-06  2.02215469818E-06  2.04759027306E-06  2.07334578808E-06
  2.09942526761E-06  2.12583278660E-06  2.15257247129E-06  2.17964849981E-06
  2.20706510284E-06  2.23482656428E-06  2.26293722192E-06  2.29140146811E-06
  2.32022375043E-06  2.34940857244E-06  2.37896049432E-06  2.40888413361E-06
  2.43918416595E-06  2.46986532579E-06  2.50093240710E-06  2.53239026419E-06
  2.56424381241E-06  2.59649802894E-06  2.62915795357E-06  2.66222868948E-06
  2.69571540404E-06  2.72962332962E-06  2.76395776440E-06  2.79872407320E-06
  2.83392768833E-06  2.86957411042E-06  2.90566890931E-06  2.94221772488E-06
  2.97922626796E-06  3.01670032120E-06  3.05464574000E-06  3.09306845342E-06
  3.13197446507E-06  3.17136985410E-06  3.21126077613E-06  3.25165346419E-06
  3.29255422971E-06  3.33396946354E-06  3.37590563687E-06  3.41836930233E-06
  3.46136709495E-06  3.50490573322E-06  3.54899202014E-06  3.59363284428E-06
  3.63883518087E-06  3.68460609285E-06  3.73095273204E-06  3.77788234018E-06
  3.82540225012E-06  3.87351988695E-06  3.92224276914E-06  3.97157850974E-06
  4.02153481756E-06  4.07211949839E-06  4.12334045616E-06  4.17520569428E-06
  4.22772331678E-06  4.28090152964E-06  4.33474864208E-06  4.38927306782E-06