<PP_INFO>
FILE REMOVED 2-oct-2006 : Dario Alfe' reported strange behavior in bulk Ir

Generated using CAMPOS data. See:
http://www.physics.rutgers.edu/~dhv/uspp/uspp-cur/Work/077-Ir/077-Ir-gpw-n-campos/
</PP_INFO>
