<PP_INFO>
Generated using Vanderbilt code, version   7  3  4                              
Author: unknown    Generation date:    5   11 2002                              
Automatically converted from original format                                    
    1        The Pseudo was generated with a Scalar-Relativistic Calculation
  1.80000000000E+00    Local Potential cutoff radius
nl pn  l   occ               Rcut            Rcut US             E pseu
4S  4  0  2.00     10.00000000000      2.20000000000     -1.69935537100
4P  4  1  6.00     10.00000000000      2.20000000000     -0.68362777300
</PP_INFO>


<PP_HEADER>
   0                   Version Number
  kr                   Element
   US                  Ultrasoft pseudopotential
    T                  Nonlinear Core Correction
 SLA  PW   GGX  GGC    PW91 Exchange-Correlation functional
    8.00000000000      Z valence
  -48.20427593400      Total energy
  0.0000000  0.0000000 Suggested cutoff for wfc and rho
    1                  Max angular momentum component
  881                  Number of points in mesh
    2    4             Number of Wavefunctions, Number of Projectors
 Wavefunctions         nl  l   occ
                       4S  0  2.00
                       4P  1  6.00
</PP_HEADER>


<PP_MESH>
  <PP_R>
  0.00000000000E+00  1.17696691889E-06  2.37405244466E-06  3.59160047683E-06
  4.82996079338E-06  6.08948915128E-06  7.37054738863E-06  8.67350352869E-06
  9.99873188554E-06  1.13466131716E-05  1.27175346072E-05  1.41118900315E-05
  1.55300800157E-05  1.69725119784E-05  1.84396003025E-05  1.99317664540E-05
  2.14494391034E-05  2.29930542487E-05  2.45630553405E-05  2.61598934099E-05
  2.77840271975E-05  2.94359232856E-05  3.11160562319E-05  3.28249087061E-05
  3.45629716284E-05  3.63307443107E-05  3.81287345999E-05  3.99574590238E-05
  4.18174429395E-05  4.37092206845E-05  4.56333357298E-05  4.75903408365E-05
  4.95807982142E-05  5.16052796830E-05  5.36643668370E-05  5.57586512122E-05
  5.78887344561E-05  6.00552285002E-05  6.22587557364E-05  6.44999491954E-05
  6.67794527288E-05  6.90979211938E-05  7.14560206415E-05  7.38544285083E-05
  7.62938338102E-05  7.87749373414E-05  8.12984518748E-05  8.38651023672E-05
  8.64756261678E-05  8.91307732295E-05  9.18313063246E-05  9.45780012641E-05
  9.73716471203E-05  1.00213046453E-04  1.03103015543E-04  1.06042384620E-04
  1.09031998110E-04  1.12072714870E-04  1.15165408440E-04  1.18310967289E-04
  1.21510295078E-04  1.24764310910E-04  1.28073949601E-04  1.31440161946E-04
  1.34863914994E-04  1.38346192322E-04  1.41887994321E-04  1.45490338482E-04
  1.49154259688E-04  1.52880810515E-04  1.56671061527E-04  1.60526101591E-04
  1.64447038184E-04  1.68434997716E-04  1.72491125851E-04  1.76616587835E-04
  1.80812568834E-04  1.85080274273E-04  1.89420930180E-04  1.93835783542E-04
  1.98326102661E-04  2.02893177518E-04  2.07538320146E-04  2.12262865004E-04
  2.17068169364E-04  2.21955613694E-04  2.26926602065E-04  2.31982562545E-04
  2.37124947612E-04  2.42355234576E-04  2.47674925995E-04  2.53085550116E-04
  2.58588661304E-04  2.64185840498E-04  2.69878695659E-04  2.75668862234E-04
  2.81558003625E-04  2.87547811670E-04  2.93640007124E-04  2.99836340157E-04
  3.06138590855E-04  3.12548569733E-04  3.19068118255E-04  3.25699109359E-04
  3.32443448003E-04  3.39303071702E-04  3.46279951096E-04  3.53376090506E-04
  3.60593528516E-04  3.67934338555E-04  3.75400629498E-04  3.82994546264E-04
  3.90718270438E-04  3.98574020899E-04  4.06564054450E-04  4.14690666473E-04
  4.22956191587E-04  4.31363004318E-04  4.39913519780E-04  4.48610194370E-04
  4.57455526475E-04  4.66452057188E-04  4.75602371038E-04  4.84909096732E-04
  4.94374907914E-04  5.04002523927E-04  5.13794710600E-04  5.23754281038E-04
  5.33884096432E-04  5.44187066884E-04  5.54666152236E-04  5.65324362928E-04
  5.76164760857E-04  5.87190460259E-04  5.98404628605E-04  6.09810487509E-04
  6.21411313652E-04  6.33210439727E-04  6.45211255396E-04  6.57417208261E-04
  6.69831804854E-04  6.82458611651E-04  6.95301256088E-04  7.08363427607E-04
  7.21648878720E-04  7.35161426077E-04  7.48904951574E-04  7.62883403458E-04
  7.77100797468E-04  7.91561217988E-04  8.06268819214E-04  8.21227826358E-04
  8.36442536852E-04  8.51917321588E-04  8.67656626172E-04  8.83664972202E-04
  8.99946958566E-04  9.16507262763E-04  9.33350642249E-04  9.50481935800E-04
  9.67906064906E-04  9.85628035182E-04  1.00365293781E-03  1.02198595099E-03
  1.04063234144E-03  1.05959746591E-03  1.07888677272E-03  1.09850580331E-03
  1.11846019385E-03  1.13875567684E-03  1.15939808280E-03  1.18039334187E-03
  1.20174748559E-03  1.22346664860E-03  1.24555707039E-03  1.26802509712E-03
  1.29087718340E-03  1.31411989420E-03  1.33775990671E-03  1.36180401223E-03
  1.38625911819E-03  1.41113225005E-03  1.43643055339E-03  1.46216129592E-03
  1.48833186958E-03  1.51494979267E-03  1.54202271201E-03  1.56955840513E-03
  1.59756478248E-03  1.62604988977E-03  1.65502191022E-03  1.68448916693E-03
  1.71446012526E-03  1.74494339529E-03  1.77594773429E-03  1.80748204919E-03
  1.83955539919E-03  1.87217699835E-03  1.90535621822E-03  1.93910259055E-03
  1.97342581002E-03  2.00833573702E-03  2.04384240050E-03  2.07995600084E-03
  2.11668691278E-03  2.15404568840E-03  2.19204306014E-03  2.23068994393E-03
  2.26999744226E-03  2.30997684741E-03  2.35063964470E-03  2.39199751576E-03
  2.43406234191E-03  2.47684620755E-03  2.52036140367E-03  2.56462043134E-03
  2.60963600531E-03  2.65542105769E-03  2.70198874165E-03  2.74935243518E-03
  2.79752574494E-03  2.84652251021E-03  2.89635680679E-03  2.94704295113E-03
  2.99859550436E-03  3.05102927655E-03  3.10435933089E-03  3.15860098809E-03
  3.21376983071E-03  3.26988170771E-03  3.32695273893E-03  3.38499931978E-03
  3.44403812592E-03  3.50408611805E-03  3.56516054681E-03  3.62727895769E-03
  3.69045919611E-03  3.75471941253E-03  3.82007806767E-03  3.88655393780E-03
  3.95416612016E-03  4.02293403842E-03  4.09287744826E-03  4.16401644308E-03
  4.23637145974E-03  4.30996328442E-03  4.38481305865E-03  4.46094228530E-03
  4.53837283483E-03  4.61712695155E-03  4.69722725998E-03  4.77869677139E-03
  4.86155889040E-03  4.94583742170E-03  5.03155657686E-03  5.11874098135E-03
  5.20741568157E-03  5.29760615202E-03  5.38933830270E-03  5.48263848647E-03
  5.57753350667E-03  5.67405062480E-03  5.77221756837E-03  5.87206253883E-03
  5.97361421972E-03  6.07690178487E-03  6.18195490680E-03  6.28880376523E-03
  6.39747905577E-03  6.50801199874E-03  6.62043434811E-03  6.73477840064E-03
  6.85107700517E-03  6.96936357204E-03  7.08967208268E-03  7.21203709941E-03
  7.33649377533E-03  7.46307786443E-03  7.59182573187E-03  7.72277436442E-03
  7.85596138109E-03  7.99142504393E-03  8.12920426903E-03  8.26933863770E-03
  8.41186840783E-03  8.55683452546E-03  8.70427863656E-03  8.85424309896E-03
  9.00677099456E-03  9.16190614166E-03  9.31969310759E-03  9.48017722149E-03
  9.64340458734E-03  9.80942209722E-03  9.97827744473E-03  1.01500191387E-02
  1.03246965173E-02  1.05023597619E-02  1.06830599117E-02  1.08668488784E-02
  1.10537794610E-02  1.12439053610E-02  1.14372811979E-02  1.16339625249E-02
  1.18340058447E-02  1.20374686258E-02  1.22444093192E-02  1.24548873750E-02
  1.26689632594E-02  1.28866984722E-02  1.31081555647E-02  1.33333981571E-02
  1.35624909572E-02  1.37954997790E-02  1.40324915615E-02  1.42735343877E-02
  1.45186975047E-02  1.47680513429E-02  1.50216675371E-02  1.52796189461E-02
  1.55419796744E-02  1.58088250933E-02  1.60802318622E-02  1.63562779510E-02
  1.66370426624E-02  1.69226066548E-02  1.72130519651E-02  1.75084620325E-02
  1.78089217229E-02  1.81145173523E-02  1.84253367125E-02  1.87414690958E-02
  1.90630053211E-02  1.93900377594E-02  1.97226603608E-02  2.00609686814E-02
  2.04050599105E-02  2.07550328990E-02  2.11109881874E-02  2.14730280346E-02
  2.18412564477E-02  2.22157792116E-02  2.25967039195E-02  2.29841400037E-02
  2.33781987670E-02  2.37789934149E-02  2.41866390880E-02  2.46012528949E-02
  2.50229539462E-02  2.54518633885E-02  2.58881044390E-02  2.63318024215E-02
  2.67830848018E-02  2.72420812246E-02  2.77089235506E-02  2.81837458947E-02
  2.86666846641E-02  2.91578785977E-02  2.96574688061E-02  3.01655988119E-02
  3.06824145910E-02  3.12080646146E-02  3.17426998917E-02  3.22864740127E-02
  3.28395431934E-02  3.34020663199E-02  3.39742049942E-02  3.45561235807E-02
  3.51479892532E-02  3.57499720434E-02  3.63622448892E-02  3.69849836849E-02
  3.76183673312E-02  3.82625777869E-02  3.89178001213E-02  3.95842225671E-02
  4.02620365745E-02  4.09514368664E-02  4.16526214942E-02  4.23657918946E-02
  4.30911529477E-02  4.38289130357E-02  4.45792841027E-02  4.53424817159E-02
  4.61187251272E-02  4.69082373362E-02  4.77112451546E-02  4.85279792710E-02
  4.93586743173E-02  5.02035689360E-02  5.10629058491E-02  5.19369319274E-02
  5.28258982617E-02  5.37300602349E-02  5.46496775951E-02  5.55850145307E-02
  5.65363397458E-02  5.75039265378E-02  5.84880528757E-02  5.94890014798E-02
  6.05070599033E-02  6.15425206148E-02  6.25956810821E-02  6.36668438577E-02
  6.47563166661E-02  6.58644124916E-02  6.69914496688E-02  6.81377519736E-02
  6.93036487165E-02  7.04894748372E-02  7.16955710004E-02  7.29222836942E-02
  7.41699653296E-02  7.54389743412E-02  7.67296752908E-02  7.80424389718E-02
  7.93776425159E-02  8.07356695011E-02  8.21169100624E-02  8.35217610033E-02
  8.49506259105E-02  8.64039152691E-02  8.78820465811E-02  8.93854444849E-02
  9.09145408778E-02  9.24697750394E-02  9.40515937586E-02  9.56604514611E-02
  9.72968103407E-02  9.89611404917E-02  1.00653920044E-01  1.02375635300E-01
  1.04126780875E-01  1.05907859841E-01  1.07719383865E-01  1.09561873365E-01
  1.11435857651E-01  1.13341875083E-01  1.15280473223E-01  1.17252208992E-01
  1.19257648833E-01  1.21297368869E-01  1.23371955073E-01  1.25482003432E-01
  1.27628120123E-01  1.29810921684E-01  1.32031035191E-01  1.34289098441E-01
  1.36585760130E-01  1.38921680045E-01  1.41297529251E-01  1.43713990284E-01
  1.46171757346E-01  1.48671536505E-01  1.51214045901E-01  1.53800015946E-01
  1.56430189540E-01  1.59105322281E-01  1.61826182683E-01  1.64593552396E-01
  1.67408226432E-01  1.70271013393E-01  1.73182735701E-01  1.76144229839E-01
  1.79156346585E-01  1.82219951264E-01  1.85335923989E-01  1.88505159919E-01
  1.91728569515E-01  1.95007078799E-01  1.98341629623E-01  2.01733179940E-01
  2.05182704076E-01  2.08691193014E-01  2.12259654673E-01  2.15889114204E-01
  2.19580614281E-01  2.23335215399E-01  2.27153996184E-01  2.31038053696E-01
  2.34988503751E-01  2.39006481236E-01  2.43093140439E-01  2.47249655378E-01
  2.51477220139E-01  2.55777049219E-01  2.60150377876E-01  2.64598462484E-01
  2.69122580889E-01  2.73724032785E-01  2.78404140080E-01  2.83164247277E-01
  2.88005721863E-01  2.92929954701E-01  2.97938360426E-01  3.03032377858E-01
  3.08213470408E-01  3.13483126505E-01  3.18842860018E-01  3.24294210695E-01
  3.29838744605E-01  3.35478054583E-01  3.41213760696E-01  3.47047510699E-01
  3.52980980517E-01  3.59015874721E-01  3.65153927019E-01  3.71396900754E-01
  3.77746589413E-01  3.84204817138E-01  3.90773439252E-01  3.97454342794E-01
  4.04249447059E-01  4.11160704147E-01  4.18190099530E-01  4.25339652617E-01
  4.32611417335E-01  4.40007482723E-01  4.47529973527E-01  4.55181050812E-01
  4.62962912586E-01  4.70877794426E-01  4.78927970125E-01  4.87115752343E-01
  4.95443493271E-01  5.03913585308E-01  5.12528461747E-01  5.21290597476E-01
  5.30202509686E-01  5.39266758598E-01  5.48485948196E-01  5.57862726973E-01
  5.67399788696E-01  5.77099873180E-01  5.86965767071E-01  5.97000304648E-01
  6.07206368641E-01  6.17586891055E-01  6.28144854012E-01  6.38883290610E-01
  6.49805285796E-01  6.60913977247E-01  6.72212556274E-01  6.83704268742E-01
  6.95392415996E-01  7.07280355815E-01  7.19371503374E-01  7.31669332227E-01
  7.44177375301E-01  7.56899225914E-01  7.69838538809E-01  7.82999031200E-01
  7.96384483841E-01  8.09998742115E-01  8.23845717133E-01  8.37929386864E-01
  8.52253797273E-01  8.66823063488E-01  8.81641370975E-01  8.96712976748E-01
  9.12042210588E-01  9.27633476286E-01  9.43491252912E-01  9.59620096099E-01
  9.76024639350E-01  9.92709595373E-01  1.00967975743E+00  1.02694000073E+00
  1.04449528380E+00  1.06235064993E+00  1.08051122863E+00  1.09898223707E+00
  1.11776898163E+00  1.13687685936E+00  1.15631135960E+00  1.17607806549E+00
  1.19618265564E+00  1.21663090570E+00  1.23742869005E+00  1.25858198350E+00
  1.28009686298E+00  1.30197950930E+00  1.32423620892E+00  1.34687335575E+00
  1.36989745302E+00  1.39331511510E+00  1.41713306943E+00  1.44135815845E+00
  1.46599734156E+00  1.49105769711E+00  1.51654642447E+00  1.54247084605E+00
  1.56883840944E+00  1.59565668952E+00  1.62293339068E+00  1.65067634897E+00
  1.67889353442E+00  1.70759305327E+00  1.73678315034E+00  1.76647221138E+00
  1.79666876549E+00  1.82738148755E+00  1.85861920073E+00  1.89039087902E+00
  1.92270564981E+00  1.95557279650E+00  1.98900176120E+00  2.02300214740E+00
  2.05758372274E+00  2.09275642186E+00  2.12853034918E+00  2.16491578186E+00
  2.20192317273E+00  2.23956315330E+00  2.27784653681E+00  2.31678432133E+00
  2.35638769294E+00  2.39666802891E+00  2.43763690101E+00  2.47930607880E+00
  2.52168753303E+00  2.56479343907E+00  2.60863618042E+00  2.65322835224E+00
  2.69858276501E+00  2.74471244816E+00  2.79163065387E+00  2.83935086083E+00
  2.88788677813E+00  2.93725234919E+00  2.98746175580E+00  3.03852942214E+00
  3.09047001896E+00  3.14329846780E+00  3.19702994525E+00  3.25167988731E+00
  3.30726399386E+00  3.36379823314E+00  3.42129884634E+00  3.47978235228E+00
  3.53926555212E+00  3.59976553426E+00  3.66129967915E+00  3.72388566437E+00
  3.78754146967E+00  3.85228538211E+00  3.91813600139E+00  3.98511224509E+00
  4.05323335421E+00  4.12251889862E+00  4.19298878272E+00  4.26466325113E+00
  4.33756289456E+00  4.41170865564E+00  4.48712183504E+00  4.56382409749E+00
  4.64183747807E+00  4.72118438851E+00  4.80188762365E+00  4.88397036796E+00
  4.96745620223E+00  5.05236911033E+00  5.13873348608E+00  5.22657414031E+00
  5.31591630793E+00  5.40678565521E+00  5.49920828717E+00  5.59321075504E+00
  5.68882006390E+00  5.78606368047E+00  5.88496954094E+00  5.98556605907E+00
  6.08788213428E+00  6.19194716000E+00  6.29779103210E+00  6.40544415748E+00
  6.51493746279E+00  6.62630240335E+00  6.73957097215E+00  6.85477570904E+00
  6.97194971014E+00  7.09112663725E+00  7.21234072761E+00  7.33562680368E+00
  7.46102028315E+00  7.58855718916E+00  7.71827416058E+00  7.85020846260E+00
  7.98439799737E+00  8.12088131497E+00  8.25969762440E+00  8.40088680491E+00
  8.54448941742E+00  8.69054671617E+00  8.83910066061E+00  8.99019392740E+00
  9.14386992272E+00  9.30017279471E+00  9.45914744615E+00  9.62083954739E+00
  9.78529554945E+00  9.95256269734E+00  1.01226890437E+01  1.02957234625E+01
  1.04717156632E+01  1.06507162050E+01  1.08327765112E+01  1.10179488842E+01
  1.12062865206E+01  1.13978435260E+01  1.15926749310E+01  1.17908367070E+01
  1.19923857821E+01  1.21973800572E+01  1.24058784235E+01  1.26179407783E+01
  1.28336280431E+01  1.30530021806E+01  1.32761262129E+01  1.35030642392E+01
  1.37338814542E+01  1.39686441675E+01  1.42074198217E+01  1.44502770124E+01
  1.46972855079E+01  1.49485162689E+01  1.52040414691E+01  1.54639345160E+01
  1.57282700719E+01  1.59971240751E+01  1.62705737624E+01  1.65486976904E+01
  1.68315757588E+01  1.71192892330E+01  1.74119207674E+01  1.77095544296E+01
  1.80122757239E+01  1.83201716162E+01  1.86333305590E+01  1.89518425170E+01
  1.92757989923E+01  1.96052930515E+01  1.99404193518E+01  2.02812741684E+01
  2.06279554225E+01  2.09805627087E+01  2.13391973245E+01  2.17039622984E+01
  2.20749624205E+01  2.24523042720E+01  2.28360962557E+01  2.32264486278E+01
  2.36234735289E+01  2.40272850166E+01  2.44379990981E+01  2.48557337637E+01
  2.52806090203E+01  2.57127469266E+01  2.61522716272E+01  2.65993093891E+01
  2.70539886378E+01  2.75164399936E+01  2.79867963099E+01  2.84651927110E+01
  2.89517666310E+01  2.94466578530E+01  2.99500085499E+01  3.04619633243E+01
  3.09826692512E+01  3.15122759192E+01  3.20509354740E+01  3.25988026622E+01
  3.31560348754E+01  3.37227921955E+01  3.42992374411E+01  3.48855362136E+01
  3.54818569454E+01  3.60883709479E+01  3.67052524608E+01  3.73326787022E+01
  3.79708299196E+01  3.86198894415E+01  3.92800437300E+01  3.99514824348E+01
  4.06343984471E+01  4.13289879556E+01  4.20354505024E+01  4.27539890405E+01
  4.34848099920E+01  4.42281233078E+01  4.49841425274E+01  4.57530848404E+01
  4.65351711491E+01  4.73306261317E+01  4.81396783071E+01  4.89625601004E+01
  4.97995079094E+01  5.06507621732E+01  5.15165674407E+01  5.23971724408E+01
  5.32928301544E+01  5.42037978867E+01  5.51303373410E+01  5.60727146942E+01
  5.70312006730E+01  5.80060706319E+01  5.89976046323E+01  6.00060875226E+01
  6.10318090205E+01  6.20750637958E+01  6.31361515556E+01  6.42153771297E+01
  6.53130505588E+01  6.64294871833E+01  6.75650077338E+01  6.87199384233E+01
  6.98946110412E+01  7.10893630480E+01  7.23045376730E+01  7.35404840123E+01
  7.47975571294E+01  7.60761181570E+01  7.73765344010E+01  7.86991794458E+01
  8.00444332617E+01  8.14126823142E+01  8.28043196747E+01  8.42197451337E+01
  8.56593653155E+01  8.71235937952E+01  8.86128512172E+01  9.01275654164E+01
  9.16681715409E+01  9.32351121770E+01  9.48288374765E+01  9.64498052857E+01
  9.80984812774E+01  9.97753390842E+01  1.01480860435E+02  1.03215535293E+02
  1.04979861997E+02  1.06774347403E+02  1.08599507033E+02  1.10455865220E+02
  1.12343955259E+02  1.14264319563E+02  1.16217509814E+02  1.18204087126E+02
  1.20224622205E+02  1.22279695512E+02  1.24369897428E+02  1.26495828430E+02
  1.28658099254E+02  1.30857331081E+02  1.33094155707E+02  1.35369215727E+02
  1.37683164724E+02  1.40036667450E+02  1.42430400019E+02  1.44865050107E+02
  1.47341317140E+02  1.49859912502E+02  1.52421559736E+02  1.55026994756E+02
  1.57676966050E+02  1.60372234906E+02  1.63113575621E+02  1.65901775729E+02
  1.68737636228E+02  1.71621971803E+02  1.74555611070E+02  1.77539396806E+02
  1.80574186195E+02  1.83660851073E+02  1.86800278180E+02  1.89993369411E+02
  1.93241042081E+02  1.96544229183E+02  1.99903879658E+02  2.03320958669E+02
  2.06796447877E+02
  </PP_R>
  <PP_RAB>
  1.16702079881E-06  1.18696939065E-06  1.20725897584E-06  1.22789538316E-06
  1.24888454107E-06  1.27023247934E-06  1.29194533082E-06  1.31402933319E-06
  1.33649083077E-06  1.35933627629E-06  1.38257223283E-06  1.40620537561E-06
  1.43024249399E-06  1.45469049336E-06  1.47955639716E-06  1.50484734888E-06
  1.53057061412E-06  1.55673358268E-06  1.58334377068E-06  1.61040882270E-06
  1.63793651402E-06  1.66593475280E-06  1.69441158240E-06  1.72337518366E-06
  1.75283387725E-06  1.78279612611E-06  1.81327053779E-06  1.84426586701E-06
  1.87579101812E-06  1.90785504770E-06  1.94046716711E-06  1.97363674519E-06
  2.00737331091E-06  2.04168655615E-06  2.07658633842E-06  2.11208268376E-06
  2.14818578959E-06  2.18490602762E-06  2.22225394688E-06  2.26024027670E-06
  2.29887592980E-06  2.33817200548E-06  2.37813979273E-06  2.41879077352E-06
  2.46013662610E-06  2.50218922832E-06  2.54496066109E-06  2.58846321181E-06
  2.63270937792E-06  2.67771187049E-06  2.72348361787E-06  2.77003776939E-06
  2.81738769915E-06  2.86554700988E-06  2.91452953682E-06  2.96434935170E-06
  3.01502076678E-06  3.06655833898E-06  3.11897687406E-06  3.17229143083E-06
  3.22651732555E-06  3.28167013626E-06  3.33776570729E-06  3.39482015383E-06
  3.45284986650E-06  3.51187151612E-06  3.57190205848E-06  3.63295873917E-06
  3.69505909861E-06  3.75822097703E-06  3.82246251961E-06  3.88780218170E-06
  3.95425873412E-06  4.02185126857E-06  4.09059920305E-06  4.16052228753E-06
  4.23164060956E-06  4.30397460004E-06  4.37754503915E-06  4.45237306223E-06
  4.52848016594E-06  4.60588821436E-06  4.68461944535E-06  4.76469647685E-06
  4.84614231344E-06  4.92898035295E-06  5.01323439313E-06  5.09892863855E-06
  5.18608770749E-06  5.27473663907E-06  5.36490090042E-06  5.45660639399E-06
  5.54987946498E-06  5.64474690895E-06  5.74123597947E-06  5.83937439599E-06
  5.93919035178E-06  6.04071252203E-06  6.14397007209E-06  6.24899266587E-06
  6.35581047431E-06  6.46445418412E-06  6.57495500651E-06  6.68734468625E-06
  6.80165551072E-06  6.91792031919E-06  7.03617251230E-06  7.15644606162E-06
  7.27877551941E-06  7.40319602856E-06  7.52974333267E-06  7.65845378633E-06
  7.78936436556E-06  7.92251267845E-06  8.05793697592E-06  8.19567616276E-06
  8.33576980876E-06  8.47825816013E-06  8.62318215100E-06  8.77058341525E-06
  8.92050429838E-06  9.07298786979E-06  9.22807793504E-06  9.38581904851E-06
  9.54625652616E-06  9.70943645859E-06  9.87540572423E-06  1.00442120028E-05
  1.02159037892E-05  1.03905304070E-05  1.05681420232E-05  1.07487896620E-05
  1.09325252201E-05  1.11194014812E-05  1.13094721311E-05  1.15027917735E-05
  1.16994159454E-05  1.18994011332E-05  1.21028047886E-05  1.23096853456E-05
  1.25201022370E-05  1.27341159115E-05  1.29517878511E-05  1.31731805888E-05
  1.33983577263E-05  1.36273839527E-05  1.38603250628E-05  1.40972479761E-05
  1.43382207559E-05  1.45833126291E-05  1.48325940058E-05  1.50861364998E-05
  1.53440129488E-05  1.56062974359E-05  1.58730653102E-05  1.61443932090E-05
  1.64203590796E-05  1.67010422016E-05  1.69865232098E-05  1.72768841175E-05
  1.75722083396E-05  1.78725807171E-05  1.81780875413E-05  1.84888165782E-05
  1.88048570944E-05  1.91262998821E-05  1.94532372857E-05  1.97857632278E-05
  2.01239732369E-05  2.04679644741E-05  2.08178357615E-05  2.11736876102E-05
  2.15356222496E-05  2.19037436565E-05  2.22781575852E-05  2.26589715974E-05
  2.30462950937E-05  2.34402393446E-05  2.38409175226E-05  2.42484447350E-05
  2.46629380563E-05  2.50845165624E-05  2.55133013648E-05  2.59494156449E-05
  2.63929846900E-05  2.68441359288E-05  2.73029989685E-05  2.77697056314E-05
  2.82443899934E-05  2.87271884221E-05  2.92182396161E-05  2.97176846450E-05
  3.02256669896E-05  3.07423325834E-05  3.12678298545E-05  3.18023097681E-05
  3.23459258698E-05  3.28988343302E-05  3.34611939890E-05  3.40331664013E-05
  3.46149158838E-05  3.52066095618E-05  3.58084174174E-05  3.64205123385E-05
  3.70430701679E-05  3.76762697547E-05  3.83202930046E-05  3.89753249332E-05
  3.96415537184E-05  4.03191707550E-05  4.10083707090E-05  4.17093515745E-05
  4.24223147295E-05  4.31474649946E-05  4.38850106915E-05  4.46351637028E-05
  4.53981395329E-05  4.61741573699E-05  4.69634401489E-05  4.77662146154E-05
  4.85827113911E-05  4.94131650396E-05  5.02578141343E-05  5.11169013264E-05
  5.19906734151E-05  5.28793814183E-05  5.37832806445E-05  5.47026307664E-05
  5.56376958956E-05  5.65887446582E-05  5.75560502721E-05  5.85398906255E-05
  5.95405483567E-05  6.05583109353E-05  6.15934707447E-05  6.26463251664E-05
  6.37171766651E-05  6.48063328756E-05  6.59141066915E-05  6.70408163548E-05
  6.81867855473E-05  6.93523434838E-05  7.05378250066E-05  7.17435706816E-05
  7.29699268961E-05  7.42172459585E-05  7.54858861996E-05  7.67762120750E-05
  7.80885942705E-05  7.94234098081E-05  8.07810421544E-05  8.21618813309E-05
  8.35663240260E-05  8.49947737089E-05  8.64476407456E-05  8.79253425167E-05
  8.94283035372E-05  9.09569555788E-05  9.25117377937E-05  9.40930968406E-05
  9.57014870135E-05  9.73373703717E-05  9.90012168729E-05  1.00693504508E-04
  1.02414719438E-04  1.04165356136E-04  1.05945917524E-04  1.07756915125E-04
  1.09598869202E-04  1.11472308913E-04  1.13377772462E-04  1.15315807250E-04
  1.17286970039E-04  1.19291827105E-04  1.21330954404E-04  1.23404937738E-04
  1.25514372923E-04  1.27659865959E-04  1.29842033203E-04  1.32061501552E-04
  1.34318908614E-04  1.36614902899E-04  1.38950144003E-04  1.41325302794E-04
  1.43741061609E-04  1.46198114451E-04  1.48697167181E-04  1.51238937730E-04
  1.53824156300E-04  1.56453565573E-04  1.59127920927E-04  1.61847990655E-04
  1.64614556178E-04  1.67428412277E-04  1.70290367320E-04  1.73201243489E-04
  1.76161877025E-04  1.79173118459E-04  1.82235832862E-04  1.85350900094E-04
  1.88519215053E-04  1.91741687934E-04  1.95019244492E-04  1.98352826306E-04
  2.01743391047E-04  2.05191912761E-04  2.08699382142E-04  2.12266806816E-04
  2.15895211636E-04  2.19585638972E-04  2.23339149014E-04  2.27156820071E-04
  2.31039748887E-04  2.34989050952E-04  2.39005860824E-04  2.43091332455E-04
  2.47246639522E-04  2.51472975764E-04  2.55771555325E-04  2.60143613105E-04
  2.64590405111E-04  2.69113208821E-04  2.73713323548E-04  2.78392070816E-04
  2.83150794738E-04  2.87990862405E-04  2.92913664274E-04  2.97920614571E-04
  3.03013151695E-04  3.08192738634E-04  3.13460863383E-04  3.18819039372E-04
  3.24268805902E-04  3.29811728585E-04  3.35449399795E-04  3.41183439127E-04
  3.47015493859E-04  3.52947239427E-04  3.58980379907E-04  3.65116648503E-04
  3.71357808048E-04  3.77705651504E-04  3.84162002486E-04  3.90728715777E-04
  3.97407677866E-04  4.04200807492E-04  4.11110056188E-04  4.18137408848E-04
  4.25284884294E-04  4.32554535857E-04  4.39948451969E-04  4.47468756757E-04
  4.55117610661E-04  4.62897211046E-04  4.70809792844E-04  4.78857629184E-04
  4.87043032055E-04  4.95368352964E-04  5.03835983615E-04  5.12448356594E-04
  5.21207946070E-04  5.30117268504E-04  5.39178883370E-04  5.48395393896E-04
  5.57769447806E-04  5.67303738086E-04  5.77001003752E-04  5.86864030640E-04
  5.96895652209E-04  6.07098750348E-04  6.17476256210E-04  6.28031151051E-04
  6.38766467090E-04  6.49685288373E-04  6.60790751669E-04  6.72086047360E-04
  6.83574420367E-04  6.95259171077E-04  7.07143656294E-04  7.19231290199E-04
  7.31525545336E-04  7.44029953607E-04  7.56748107285E-04  7.69683660051E-04
  7.82840328039E-04  7.96221890904E-04  8.09832192911E-04  8.23675144036E-04
  8.37754721091E-04  8.52074968866E-04  8.66640001292E-04  8.81454002619E-04
  8.96521228625E-04  9.11846007831E-04  9.27432742750E-04  9.43285911150E-04
  9.59410067338E-04  9.75809843474E-04  9.92489950895E-04  1.00945518147E-03
  1.02671040899E-03  1.04426059054E-03  1.06211076795E-03  1.08026606923E-03
  1.09873171005E-03  1.11751299523E-03  1.13661532027E-03  1.15604417289E-03
  1.17580513464E-03  1.19590388245E-03  1.21634619030E-03  1.23713793087E-03
  1.25828507723E-03  1.27979370455E-03  1.30166999183E-03  1.32392022371E-03
  1.34655079225E-03  1.36956819878E-03  1.39297905575E-03  1.41679008865E-03
  1.44100813793E-03  1.46564016095E-03  1.49069323404E-03  1.51617455444E-03
  1.54209144246E-03  1.56845134350E-03  1.59526183027E-03  1.62253060489E-03
  1.65026550115E-03  1.67847448676E-03  1.70716566561E-03  1.73634728012E-03
  1.76602771360E-03  1.79621549267E-03  1.82691928970E-03  1.85814792528E-03
  1.88991037081E-03  1.92221575101E-03  1.95507334661E-03  1.98849259694E-03
  2.02248310272E-03  2.05705462875E-03  2.09221710678E-03  2.12798063829E-03
  2.16435549747E-03  2.20135213409E-03  2.23898117659E-03  2.27725343505E-03
  2.31617990435E-03  2.35577176733E-03  2.39604039794E-03  2.43699736460E-03
  2.47865443344E-03  2.52102357174E-03  2.56411695132E-03  2.60794695209E-03
  2.65252616555E-03  2.69786739844E-03  2.74398367644E-03  2.79088824785E-03
  2.83859458744E-03  2.88711640034E-03  2.93646762590E-03  2.98666244179E-03
  3.03771526801E-03  3.08964077104E-03  3.14245386807E-03  3.19616973130E-03
  3.25080379224E-03  3.30637174620E-03  3.36288955678E-03  3.42037346046E-03
  3.47883997125E-03  3.53830588544E-03  3.59878828644E-03  3.66030454968E-03
  3.72287234759E-03  3.78650965468E-03  3.85123475272E-03  3.91706623599E-03
  3.98402301658E-03  4.05212432989E-03  4.12138974011E-03  4.19183914585E-03
  4.26349278586E-03  4.33637124485E-03  4.41049545938E-03  4.48588672391E-03
  4.56256669689E-03  4.64055740699E-03  4.71988125944E-03  4.80056104244E-03
  4.88261993373E-03  4.96608150725E-03  5.05096973989E-03  5.13730901839E-03
  5.22512414636E-03  5.31444035139E-03  5.40528329229E-03  5.49767906648E-03
  5.59165421749E-03  5.68723574255E-03  5.78445110038E-03  5.88332821909E-03
  5.98389550414E-03  6.08618184658E-03  6.19021663129E-03  6.29602974545E-03
  6.40365158712E-03  6.51311307398E-03  6.62444565219E-03  6.73768130545E-03
  6.85285256417E-03  6.96999251482E-03  7.08913480944E-03  7.21031367532E-03
  7.33356392479E-03  7.45892096526E-03  7.58642080939E-03  7.71610008541E-03
  7.84799604768E-03  7.98214658734E-03  8.11859024326E-03  8.25736621306E-03
  8.39851436438E-03  8.54207524635E-03  8.68809010126E-03  8.83660087632E-03
  8.98765023582E-03  9.14128157332E-03  9.29753902411E-03  9.45646747796E-03
  9.61811259192E-03  9.78252080351E-03  9.94973934403E-03  1.01198162521E-02
  1.02928003876E-02  1.04687414455E-02  1.06476899701E-02  1.08296973701E-02
  1.10148159326E-02  1.12030988385E-02  1.13946001780E-02  1.15893749656E-02
  1.17874791563E-02  1.19889696617E-02  1.21939043661E-02  1.24023421433E-02
  1.26143428734E-02  1.28299674600E-02  1.30492778481E-02  1.32723370411E-02
  1.34992091198E-02  1.37299592600E-02  1.39646537519E-02  1.42033600185E-02
  1.44461466356E-02  1.46930833511E-02  1.49442411051E-02  1.51996920504E-02
  1.54595095731E-02  1.57237683138E-02  1.59925441888E-02  1.62659144123E-02
  1.65439575182E-02  1.68267533831E-02  1.71143832485E-02  1.74069297451E-02
  1.77044769157E-02  1.80071102400E-02  1.83149166586E-02  1.86279845983E-02
  1.89464039975E-02  1.92702663320E-02  1.95996646411E-02  1.99346935546E-02
  2.02754493198E-02  2.06220298292E-02  2.09745346487E-02  2.13330650462E-02
  2.16977240205E-02  2.20686163310E-02  2.24458485279E-02  2.28295289827E-02
  2.32197679195E-02  2.36166774463E-02  2.40203715874E-02  2.44309663166E-02
  2.48485795896E-02  2.52733313786E-02  2.57053437068E-02  2.61447406827E-02
  2.65916485367E-02  2.70461956568E-02  2.75085126255E-02  2.79787322576E-02
  2.84569896380E-02  2.89434221609E-02  2.94381695689E-02  2.99413739934E-02
  3.04531799952E-02  3.09737346064E-02  3.15031873721E-02  3.20416903940E-02
  3.25893983734E-02  3.31464686564E-02  3.37130612784E-02  3.42893390106E-02