<PP_INFO>
Generated using Vanderbilt code, version   7  0  0                              
Author: unknown    Generation date:    0    0    0                              
Automatically converted from original format                                    
    1        The Pseudo was generated with a Scalar-Relativistic Calculation
  2.00000000000E+00    Local Potential cutoff radius
nl pn  l   occ               Rcut            Rcut US             E pseu
2P  2  1  6.00     10.00000000000      2.00000000000     -3.69842610300
3S  3  0  1.00     10.00000000000      2.30000000000     -0.51455069900
3P  3  1  0.75     10.00000000000      2.00000000000     -0.23733335900
3D  3  2  0.00     10.00000000000      2.00000000000     -0.02607571400
</PP_INFO>


<PP_HEADER>
   0                   Version Number
  mg                   Element
   US                  Ultrasoft pseudopotential
    T                  Nonlinear Core Correction
 SLA  PW   GGX  GGC    PW91 Exchange-Correlation functional
    8.00000000000      Z valence
  -78.90029990050      Total energy
  0.0000000  0.0000000 Suggested cutoff for wfc and rho
    2                  Max angular momentum component
  913                  Number of points in mesh
    4    6             Number of Wavefunctions, Number of Projectors
 Wavefunctions         nl  l   occ
                       2P  1  6.00
                       3S  0  1.00
                       3P  1  0.75
                       3D  2  0.00
</PP_HEADER>


<PP_MESH>
  <PP_R>
  0.00000000000E+00  1.27711579887E-06  2.57569522779E-06  3.89609901163E-06
  5.23869393770E-06  6.60385295767E-06  7.99195529117E-06  9.40338653109E-06
  1.08385387507E-05  1.22978106128E-05  1.37816074798E-05  1.52903415272E-05
  1.68244318575E-05  1.83843046167E-05  1.99703931129E-05  2.15831379364E-05
  2.32229870822E-05  2.48903960745E-05  2.65858280932E-05  2.83097541026E-05
  3.00626529821E-05  3.18450116593E-05  3.36573252452E-05  3.55000971721E-05
  3.73738393328E-05  3.92790722233E-05  4.12163250872E-05  4.31861360628E-05
  4.51890523324E-05  4.72256302746E-05  4.92964356186E-05  5.14020436013E-05
  5.35430391275E-05  5.57200169318E-05  5.79335817444E-05  6.01843484585E-05
  6.24729423016E-05  6.47999990090E-05  6.71661650002E-05  6.95720975589E-05
  7.20184650150E-05  7.45059469308E-05  7.70352342895E-05  7.96070296873E-05
  8.22220475281E-05  8.48810142228E-05  8.75846683902E-05  9.03337610628E-05
  9.31290558951E-05  9.59713293759E-05  9.88613710439E-05  1.01799983707E-04
  1.04787983665E-04  1.07826200938E-04  1.10915479494E-04  1.14056677486E-04
  1.17250667490E-04  1.20498336745E-04  1.23800587402E-04  1.27158336775E-04
  1.30572517593E-04  1.34044078262E-04  1.37573983126E-04  1.41163212738E-04
  1.44812764128E-04  1.48523651085E-04  1.52296904434E-04  1.56133572326E-04
  1.60034720526E-04  1.64001432711E-04  1.68034810772E-04  1.72135975117E-04
  1.76306064985E-04  1.80546238761E-04  1.84857674299E-04  1.89241569246E-04
  1.93699141381E-04  1.98231628945E-04  2.02840290993E-04  2.07526407738E-04
  2.12291280909E-04  2.17136234113E-04  2.22062613201E-04  2.27071786644E-04
  2.32165145911E-04  2.37344105856E-04  2.42610105113E-04  2.47964606493E-04
  2.53409097393E-04  2.58945090206E-04  2.64574122742E-04  2.70297758660E-04
  2.76117587893E-04  2.82035227100E-04  2.88052320106E-04  2.94170538365E-04
  3.00391581422E-04  3.06717177383E-04  3.13149083400E-04  3.19689086155E-04
  3.26339002356E-04  3.33100679247E-04  3.39975995113E-04  3.46966859809E-04
  3.54075215287E-04  3.61303036136E-04  3.68652330129E-04  3.76125138786E-04
  3.83723537934E-04  3.91449638288E-04  3.99305586038E-04  4.07293563441E-04
  4.15415789431E-04  4.23674520235E-04  4.32072049997E-04  4.40610711419E-04
  4.49292876405E-04  4.58120956725E-04  4.67097404680E-04  4.76224713784E-04
  4.85505419461E-04  4.94942099744E-04  5.04537375993E-04  5.14293913625E-04
  5.24214422852E-04  5.34301659434E-04  5.44558425447E-04  5.54987570059E-04
  5.65591990321E-04  5.76374631973E-04  5.87338490263E-04  5.98486610777E-04
  6.09822090289E-04  6.21348077614E-04  6.33067774490E-04  6.44984436464E-04
  6.57101373796E-04  6.69421952380E-04  6.81949594678E-04  6.94687780672E-04
  7.07640048828E-04  7.20809997082E-04  7.34201283838E-04  7.47817628983E-04
  7.61662814923E-04  7.75740687633E-04  7.90055157722E-04  8.04610201525E-04
  8.19409862203E-04  8.34458250867E-04  8.49759547724E-04  8.65318003231E-04
  8.81137939281E-04  8.97223750403E-04  9.13579904982E-04  9.30210946498E-04
  9.47121494793E-04  9.64316247349E-04  9.81799980598E-04  9.99577551244E-04
  1.01765389762E-03  1.03603404104E-03  1.05472308722E-03  1.07372622769E-03
  1.09304874122E-03  1.11269599529E-03  1.13267344760E-03  1.15298664758E-03
  1.17364123791E-03  1.19464295611E-03  1.21599763612E-03  1.23771120994E-03
  1.25978970926E-03  1.28223926713E-03  1.30506611968E-03  1.32827660787E-03
  1.35187717918E-03  1.37587438949E-03  1.40027490485E-03  1.42508550334E-03
  1.45031307693E-03  1.47596463346E-03  1.50204729853E-03  1.52856831749E-03
  1.55553505745E-03  1.58295500935E-03  1.61083579002E-03  1.63918514430E-03
  1.66801094720E-03  1.69732120607E-03  1.72712406283E-03  1.75742779625E-03
  1.78824082422E-03  1.81957170612E-03  1.85142914517E-03  1.88382199087E-03
  1.91675924144E-03  1.95025004632E-03  1.98430370873E-03  2.01892968825E-03
  2.05413760341E-03  2.08993723443E-03  2.12633852588E-03  2.16335158946E-03
  2.20098670681E-03  2.23925433238E-03  2.27816509631E-03  2.31772980739E-03
  2.35795945608E-03  2.39886521753E-03  2.44045845473E-03  2.48275072161E-03
  2.52575376631E-03  2.56947953438E-03  2.61394017215E-03  2.65914803009E-03
  2.70511566623E-03  2.75185584965E-03  2.79938156403E-03  2.84770601127E-03
  2.89684261514E-03  2.94680502501E-03  2.99760711964E-03  3.04926301106E-03
  3.10178704846E-03  3.15519382218E-03  3.20949816779E-03  3.26471517017E-03
  3.32086016773E-03  3.37794875668E-03  3.43599679531E-03  3.49502040846E-03
  3.55503599195E-03  3.61606021716E-03  3.67811003567E-03  3.74120268392E-03
  3.80535568807E-03  3.87058686880E-03  3.93691434630E-03  4.00435654531E-03
  4.07293220019E-03  4.14266036019E-03  4.21356039468E-03  4.28565199857E-03
  4.35895519778E-03  4.43349035477E-03  4.50927817424E-03  4.58633970884E-03
  4.66469636505E-03  4.74436990911E-03  4.82538247307E-03  4.90775656095E-03
  4.99151505497E-03  5.07668122191E-03  5.16327871959E-03  5.25133160343E-03
  5.34086433312E-03  5.43190177945E-03  5.52446923118E-03  5.61859240209E-03
  5.71429743810E-03  5.81161092457E-03  5.91055989365E-03  6.01117183179E-03
  6.11347468740E-03  6.21749687860E-03  6.32326730112E-03  6.43081533630E-03
  6.54017085929E-03  6.65136424734E-03  6.76442638820E-03  6.87938868875E-03
  6.99628308371E-03  7.11514204448E-03  7.23599858823E-03  7.35888628698E-03
  7.48383927699E-03  7.61089226823E-03  7.74008055403E-03  7.87144002083E-03
  8.00500715824E-03  8.14081906908E-03  8.27891347977E-03  8.41932875075E-03
  8.56210388716E-03  8.70727854969E-03  8.85489306556E-03  9.00498843976E-03
  9.15760636640E-03  9.31278924034E-03  9.47058016893E-03  9.63102298400E-03
  9.79416225402E-03  9.96004329652E-03  1.01287121906E-02  1.03002157899E-02
  1.04746017353E-02  1.06519184685E-02  1.08322152453E-02  1.10155421494E-02
  1.12019501059E-02  1.13914908962E-02  1.15842171716E-02  1.17801824684E-02
  1.19794412228E-02  1.21820487856E-02  1.23880614381E-02  1.25975364073E-02
  1.28105318820E-02  1.30271070290E-02  1.32473220095E-02  1.34712379957E-02
  1.36989171880E-02  1.39304228320E-02  1.41658192363E-02  1.44051717904E-02
  1.46485469826E-02  1.48960124187E-02  1.51476368406E-02  1.54034901457E-02
  1.56636434060E-02  1.59281688879E-02  1.61971400725E-02  1.64706316757E-02
  1.67487196691E-02  1.70314813012E-02  1.73189951187E-02  1.76113409884E-02
  1.79086001194E-02  1.82108550856E-02  1.85181898486E-02  1.88306897811E-02
  1.91484416908E-02  1.94715338440E-02  1.98000559907E-02  2.01340993892E-02
  2.04737568313E-02  2.08191226687E-02  2.11702928384E-02  2.15273648900E-02
  2.18904380125E-02  2.22596130619E-02  2.26349925890E-02  2.30166808686E-02
  2.34047839275E-02  2.37994095746E-02  2.42006674307E-02  2.46086689589E-02
  2.50235274956E-02  2.54453582819E-02  2.58742784958E-02  2.63104072845E-02
  2.67538657977E-02  2.72047772212E-02  2.76632668110E-02  2.81294619284E-02
  2.86034920750E-02  2.90854889288E-02  2.95755863810E-02  3.00739205729E-02
  3.05806299338E-02  3.10958552197E-02  3.16197395520E-02  3.21524284574E-02
  3.26940699086E-02  3.32448143649E-02  3.38048148146E-02  3.43742268168E-02
  3.49532085453E-02  3.55419208319E-02  3.61405272118E-02  3.67491939682E-02
  3.73680901793E-02  3.79973877646E-02  3.86372615329E-02  3.92878892313E-02
  3.99494515937E-02  4.06221323917E-02  4.13061184855E-02  4.20015998755E-02
  4.27087697556E-02  4.34278245663E-02  4.41589640497E-02  4.49023913048E-02
  4.56583128440E-02  4.64269386504E-02  4.72084822360E-02  4.80031607012E-02
  4.88111947954E-02  4.96328089775E-02  5.04682314789E-02  5.13176943670E-02
  5.21814336090E-02  5.30596891380E-02  5.39527049197E-02  5.48607290196E-02
  5.57840136725E-02  5.67228153524E-02  5.76773948434E-02  5.86480173128E-02
  5.96349523840E-02  6.06384742122E-02  6.16588615597E-02  6.26963978741E-02
  6.37513713666E-02  6.48240750922E-02  6.59148070309E-02  6.70238701710E-02
  6.81515725927E-02  6.92982275538E-02  7.04641535771E-02  7.16496745383E-02
  7.28551197564E-02  7.40808240852E-02  7.53271280059E-02  7.65943777220E-02
  7.78829252555E-02  7.91931285446E-02  8.05253515430E-02  8.18799643213E-02
  8.32573431695E-02  8.46578707017E-02  8.60819359623E-02  8.75299345342E-02
  8.90022686485E-02  9.04993472963E-02  9.20215863425E-02  9.35694086410E-02
  9.51432441525E-02  9.67435300636E-02  9.83707109083E-02  1.00025238692E-01
  1.01707573016E-01  1.03418181207E-01  1.05157538444E-01  1.06926127894E-01
  1.08724440842E-01  1.10552976831E-01  1.12412243801E-01  1.14302758225E-01
  1.16225045260E-01  1.18179638886E-01  1.20167082057E-01  1.22187926856E-01
  1.24242734640E-01  1.26332076202E-01  1.28456531929E-01  1.30616691960E-01
  1.32813156355E-01  1.35046535256E-01  1.37317449061E-01  1.39626528594E-01
  1.41974415280E-01  1.44361761325E-01  1.46789229897E-01  1.49257495308E-01
  1.51767243202E-01  1.54319170749E-01  1.56913986833E-01  1.59552412254E-01
  1.62235179924E-01  1.64963035074E-01  1.67736735459E-01  1.70557051569E-01
  1.73424766843E-01  1.76340677887E-01  1.79305594696E-01  1.82320340877E-01
  1.85385753877E-01  1.88502685222E-01  1.91672000744E-01  1.94894580830E-01
  1.98171320662E-01  2.01503130466E-01  2.04890935766E-01  2.08335677641E-01
  2.11838312987E-01  2.15399814779E-01  2.19021172347E-01  2.22703391647E-01
  2.26447495541E-01  2.30254524082E-01  2.34125534803E-01  2.38061603008E-01
  2.42063822076E-01  2.46133303761E-01  2.50271178498E-01  2.54478595726E-01
  2.58756724198E-01  2.63106752310E-01  2.67529888432E-01  2.72027361241E-01
  2.76600420064E-01  2.81250335225E-01  2.85978398395E-01  2.90785922958E-01
  2.95674244367E-01  3.00644720520E-01  3.05698732138E-01  3.10837683145E-01
  3.16063001060E-01  3.21376137394E-01  3.26778568053E-01  3.32271793747E-01
  3.37857340407E-01  3.43536759609E-01  3.49311629006E-01  3.55183552767E-01
  3.61154162018E-01  3.67225115301E-01  3.73398099031E-01  3.79674827965E-01
  3.86057045679E-01  3.92546525052E-01  3.99145068760E-01  4.05854509773E-01
  4.12676711869E-01  4.19613570147E-01  4.26667011558E-01  4.33838995435E-01
  4.41131514042E-01  4.48546593127E-01  4.56086292480E-01  4.63752706512E-01
  4.71547964831E-01  4.79474232837E-01  4.87533712321E-01  4.95728642081E-01
  5.04061298537E-01  5.12533996371E-01  5.21149089164E-01  5.29908970053E-01
  5.38816072394E-01  5.47872870440E-01  5.57081880026E-01  5.66445659270E-01
  5.75966809281E-01  5.85647974885E-01  5.95491845357E-01  6.05501155168E-01
  6.15678684747E-01  6.26027261251E-01  6.36549759350E-01  6.47249102028E-01
  6.58128261395E-01  6.69190259508E-01  6.80438169217E-01  6.91875115012E-01
  7.03504273897E-01  7.15328876268E-01  7.27352206813E-01  7.39577605424E-01
  7.52008468122E-01  7.64648248007E-01  7.77500456208E-01  7.90568662866E-01
  8.03856498123E-01  8.17367653129E-01  8.31105881071E-01  8.45074998210E-01
  8.59278884947E-01  8.73721486897E-01  8.88406815987E-01  9.03338951570E-01
  9.18522041556E-01  9.33960303570E-01  9.49658026115E-01  9.65619569771E-01
  9.81849368404E-01  9.98351930395E-01  1.01513183989E+00  1.03219375810E+00
  1.04954242453E+00  1.06718265839E+00  1.08511935985E+00  1.10335751143E+00
  1.12190217942E+00  1.14075851522E+00  1.15993175684E+00  1.17942723028E+00
  1.19925035110E+00  1.21940662583E+00  1.23990165358E+00  1.26074112753E+00
  1.28193083656E+00  1.30347666685E+00  1.32538460348E+00  1.34766073213E+00
  1.37031124076E+00  1.39334242132E+00  1.41676067151E+00  1.44057249655E+00
  1.46478451099E+00  1.48940344054E+00  1.51443612396E+00  1.53988951492E+00
  1.56577068398E+00  1.59208682052E+00  1.61884523475E+00  1.64605335972E+00
  1.67371875344E+00  1.70184910089E+00  1.73045221627E+00  1.75953604505E+00
  1.78910866626E+00  1.81917829472E+00  1.84975328329E+00  1.88084212522E+00
  1.91245345649E+00  1.94459605825E+00  1.97727885919E+00  2.01051093808E+00
  2.04430152626E+00  2.07866001024E+00  2.11359593425E+00  2.14911900294E+00
  2.18523908405E+00  2.22196621119E+00  2.25931058656E+00  2.29728258384E+00
  2.33589275105E+00  2.37515181348E+00  2.41507067669E+00  2.45566042951E+00
  2.49693234712E+00  2.53889789421E+00  2.58156872816E+00  2.62495670223E+00
  2.66907386894E+00  2.71393248332E+00  2.75954500639E+00  2.80592410860E+00
  2.85308267333E+00  2.90103380047E+00  2.94979081010E+00  2.99936724614E+00
  3.04977688014E+00  3.10103371511E+00  3.15315198938E+00  3.20614618059E+00
  3.26003100968E+00  3.31482144502E+00  3.37053270651E+00  3.42718026987E+00
  3.48477987089E+00  3.54334750984E+00  3.60289945588E+00  3.66345225160E+00
  3.72502271761E+00  3.78762795722E+00  3.85128536116E+00  3.91601261247E+00
  3.98182769135E+00  4.04874888018E+00  4.11679476863E+00  4.18598425876E+00
  4.25633657032E+00  4.32787124607E+00  4.40060815722E+00  4.47456750893E+00
  4.54976984593E+00  4.62623605826E+00  4.70398738702E+00  4.78304543029E+00
  4.86343214916E+00  4.94516987379E+00  5.02828130962E+00  5.11278954370E+00
  5.19871805108E+00  5.28609070135E+00  5.37493176524E+00  5.46526592141E+00
  5.55711826325E+00  5.65051430589E+00  5.74547999328E+00  5.84204170539E+00
  5.94022626554E+00  6.04006094784E+00  6.14157348480E+00  6.24479207500E+00
  6.34974539092E+00  6.45646258694E+00  6.56497330742E+00  6.67530769492E+00
  6.78749639858E+00  6.90157058267E+00  7.01756193518E+00  7.13550267669E+00
  7.25542556926E+00  7.37736392558E+00  7.50135161821E+00  7.62742308897E+00
  7.75561335851E+00  7.88595803608E+00  8.01849332936E+00  8.15325605457E+00
  8.29028364666E+00  8.42961416974E+00  8.57128632762E+00  8.71533947460E+00
  8.86181362635E+00  9.01074947109E+00  9.16218838085E+00  9.31617242295E+00
  9.47274437174E+00  9.63194772044E+00  9.79382669320E+00  9.95842625747E+00
  1.01257921364E+01  1.02959708216E+01  1.04690095860E+01  1.06449564970E+01
  1.08238604300E+01  1.10057710815E+01  1.11907389836E+01  1.13788155173E+01
  1.15700529274E+01  1.17645043366E+01  1.19622237605E+01  1.21632661222E+01
  1.23676872684E+01  1.25755439838E+01  1.27868940079E+01  1.30017960504E+01
  1.32203098075E+01  1.34424959791E+01  1.36684162848E+01  1.38981334819E+01
  1.41317113820E+01  1.43692148696E+01  1.46107099192E+01  1.48562636144E+01
  1.51059441661E+01  1.53598209317E+01  1.56179644340E+01  1.58804463814E+01
  1.61473396871E+01  1.64187184898E+01  1.66946581744E+01  1.69752353925E+01
  1.72605280840E+01  1.75506154987E+01  1.78455782184E+01  1.81454981790E+01
  1.84504586935E+01  1.87605444752E+01  1.90758416610E+01  1.93964378355E+01
  1.97224220552E+01  2.00538848734E+01  2.03909183652E+01  2.07336161532E+01
  2.10820734335E+01  2.14363870020E+01  2.17966552813E+01  2.21629783484E+01
  2.25354579620E+01  2.29141975910E+01  2.32993024434E+01  2.36908794952E+01
  2.40890375202E+01  2.44938871206E+01  2.49055407571E+01  2.53241127806E+01
  2.57497194639E+01  2.61824790336E+01  2.66225117037E+01  2.70699397083E+01
  2.75248873356E+01  2.79874809632E+01  2.84578490920E+01  2.89361223831E+01
  2.94224336930E+01  2.99169181116E+01  3.04197129986E+01  3.09309580226E+01
  3.14507951994E+01  3.19793689316E+01  3.25168260485E+01  3.30633158473E+01
  3.36189901342E+01  3.41840032668E+01  3.47585121967E+01  3.53426765136E+01
  3.59366584889E+01  3.65406231216E+01  3.71547381834E+01  3.77791742658E+01
  3.84141048274E+01  3.90597062417E+01  3.97161578467E+01  4.03836419943E+01
  4.10623441009E+01  4.17524526995E+01  4.24541594911E+01  4.31676593989E+01
  4.38931506218E+01  4.46308346900E+01  4.53809165203E+01  4.61436044737E+01
  4.69191104128E+01  4.77076497610E+01  4.85094415619E+01  4.93247085408E+01
  5.01536771658E+01  5.09965777115E+01  5.18536443222E+01  5.27251150775E+01
  5.36112320583E+01  5.45122414138E+01  5.54283934302E+01  5.63599426001E+01
  5.73071476931E+01  5.82702718278E+01  5.92495825450E+01  6.02453518816E+01
  6.12578564467E+01  6.22873774980E+01  6.33342010202E+01  6.43986178044E+01
  6.54809235288E+01  6.65814188407E+01  6.77004094405E+01  6.88382061659E+01
  6.99951250791E+01  7.11714875537E+01  7.23676203647E+01  7.35838557789E+01
  7.48205316474E+01  7.60779914990E+01  7.73565846364E+01  7.86566662325E+01
  7.99785974294E+01  8.13227454387E+01  8.26894836436E+01  8.40791917023E+01
  8.54922556538E+01  8.69290680249E+01  8.83900279394E+01  8.98755412289E+01
  9.13860205455E+01  9.29218854766E+01  9.44835626612E+01  9.60714859085E+01
  9.76860963184E+01  9.93278424044E+01  1.00997180218E+02  1.02694573473E+02
  1.04420493681E+02  1.06175420274E+02  1.07959840743E+02  1.09774250773E+02
  1.11619154376E+02  1.13495064039E+02  1.15402500860E+02  1.17341994694E+02
  1.19314084302E+02  1.21319317499E+02  1.23358251309E+02  1.25431452113E+02
  1.27539495815E+02  1.29682967996E+02  1.31862464079E+02  1.34078589493E+02
  1.36331959843E+02  1.38623201079E+02  1.40952949673E+02  1.43321852791E+02
  1.45730568478E+02  1.48179765836E+02  1.50670125215E+02  1.53202338395E+02
  1.55777108787E+02  1.58395151621E+02  1.61057194148E+02  1.63763975841E+02
  1.66516248602E+02  1.69314776968E+02  1.72160338326E+02  1.75053723128E+02
  1.77995735112E+02  1.80987191520E+02  1.84028923334E+02  1.87121775497E+02
  1.90266607156E+02  1.93464291894E+02  1.96715717979E+02  2.00021788604E+02
  2.03383422145E+02  2.06801552410E+02  2.10277128901E+02  2.13811117079E+02
  2.17404498630E+02  2.21058271739E+02  2.24773451366E+02  2.28551069528E+02
  2.32392175590E+02  2.36297836549E+02  2.40269137337E+02  2.44307181118E+02
  2.48413089597E+02  2.52588003330E+02  2.56833082042E+02  2.61149504951E+02
  2.65538471088E+02  2.70001199641E+02  2.74538930283E+02  2.79152923527E+02
  2.83844461065E+02  2.88614846133E+02  2.93465403869E+02  2.98397481680E+02
  3.03412449621E+02
  </PP_R>
  <PP_RAB>
  1.26650272994E-06  1.28778799325E-06  1.30943098373E-06  1.33143771346E-06
  1.35381429557E-06  1.37656694590E-06  1.39970198479E-06  1.42322583879E-06
  1.44714504245E-06  1.47146624015E-06  1.49619618793E-06  1.52134175539E-06
  1.54690992756E-06  1.57290780688E-06  1.59934261515E-06  1.62622169554E-06
  1.65355251464E-06  1.68134266451E-06  1.70959986482E-06  1.73833196498E-06
  1.76754694631E-06  1.79725292426E-06  1.82745815069E-06  1.85817101614E-06
  1.88940005215E-06  1.92115393366E-06  1.95344148139E-06  1.98627166432E-06
  2.01965360214E-06  2.05359656785E-06  2.08810999025E-06  2.12320345663E-06
  2.15888671539E-06  2.19516967880E-06  2.23206242568E-06  2.26957520424E-06
  2.30771843496E-06  2.34650271342E-06  2.38593881327E-06  2.42603768925E-06
  2.46681048019E-06  2.50826851212E-06  2.55042330143E-06  2.59328655806E-06
  2.63687018874E-06  2.68118630032E-06  2.72624720311E-06  2.77206541432E-06
  2.81865366152E-06  2.86602488620E-06  2.91419224733E-06  2.96316912505E-06
  3.01296912436E-06  3.06360607891E-06  3.11509405484E-06  3.16744735471E-06
  3.22068052144E-06  3.27480834235E-06  3.32984585330E-06  3.38580834285E-06
  3.44271135648E-06  3.50057070096E-06  3.55940244870E-06  3.61922294223E-06
  3.68004879874E-06  3.74189691469E-06  3.80478447051E-06  3.86872893537E-06
  3.93374807203E-06  3.99985994179E-06  4.06708290947E-06  4.13543564855E-06
  4.20493714636E-06  4.27560670929E-06  4.34746396825E-06  4.42052888404E-06
  4.49482175295E-06  4.57036321236E-06  4.64717424649E-06  4.72527619224E-06
  4.80469074509E-06  4.88543996516E-06  4.96754628329E-06  5.05103250734E-06
  5.13592182845E-06  5.22223782754E-06  5.31000448182E-06  5.39924617149E-06
  5.48998768649E-06  5.58225423337E-06  5.67607144231E-06  5.77146537427E-06
  5.86846252816E-06  5.96708984827E-06  6.06737473170E-06  6.16934503602E-06
  6.27302908696E-06  6.37845568632E-06  6.48565411994E-06  6.59465416585E-06
  6.70548610254E-06  6.81818071738E-06  6.93276931515E-06  7.04928372676E-06
  7.16775631805E-06  7.28821999886E-06  7.41070823209E-06  7.53525504304E-06
  7.66189502883E-06  7.79066336807E-06  7.92159583057E-06  8.05472878728E-06
  8.19009922045E-06  8.32774473385E-06  8.46770356322E-06  8.61001458691E-06
  8.75471733669E-06  8.90185200869E-06  9.05145947460E-06  9.20358129300E-06
  9.35825972095E-06  9.51553772566E-06  9.67545899648E-06  9.83806795702E-06
  1.00034097775E-05  1.01715303872E-05  1.03424764874E-05  1.05162955643E-05
  1.06930359019E-05  1.08727465961E-05  1.10554775676E-05  1.12412795762E-05
  1.14302042348E-05  1.16223040235E-05  1.18176323048E-05  1.20162433377E-05
  1.22181922932E-05  1.24235352696E-05  1.26323293079E-05  1.28446324078E-05
  1.30605035437E-05  1.32800026813E-05  1.35031907939E-05  1.37301298797E-05
  1.39608829787E-05  1.41955141905E-05  1.44340886920E-05  1.46766727554E-05
  1.49233337666E-05  1.51741402444E-05  1.54291618587E-05  1.56884694504E-05
  1.59521350513E-05  1.62202319033E-05  1.64928344796E-05  1.67700185049E-05
  1.70518609765E-05  1.73384401858E-05  1.76298357399E-05  1.79261285840E-05
  1.82274010235E-05  1.85337367472E-05  1.88452208503E-05  1.91619398581E-05
  1.94839817502E-05  1.98114359847E-05  2.01443935233E-05  2.04829468563E-05
  2.08271900284E-05  2.11772186651E-05  2.15331299986E-05  2.18950228956E-05
  2.22629978842E-05  2.26371571821E-05  2.30176047247E-05  2.34044461944E-05
  2.37977890496E-05  2.41977425549E-05  2.46044178108E-05  2.50179277855E-05
  2.54383873455E-05  2.58659132877E-05  2.63006243721E-05  2.67426413547E-05
  2.71920870207E-05  2.76490862191E-05  2.81137658970E-05  2.85862551350E-05
  2.90666851833E-05  2.95551894977E-05  3.00519037771E-05  3.05569660007E-05
  3.10705164669E-05  3.15926978319E-05  3.21236551495E-05  3.26635359111E-05
  3.32124900872E-05  3.37706701686E-05  3.43382312088E-05  3.49153308674E-05
  3.55021294535E-05  3.60987899705E-05  3.67054781613E-05  3.73223625542E-05
  3.79496145101E-05  3.85874082696E-05  3.92359210017E-05  3.98953328531E-05
  4.05658269979E-05  4.12475896888E-05  4.19408103088E-05  4.26456814235E-05
  4.33623988350E-05  4.40911616362E-05  4.48321722658E-05  4.55856365648E-05
  4.63517638338E-05  4.71307668908E-05  4.79228621305E-05  4.87282695845E-05
  4.95472129823E-05  5.03799198134E-05  5.12266213906E-05  5.20875529143E-05
  5.29629535376E-05  5.38530664329E-05  5.47581388597E-05  5.56784222327E-05
  5.66141721922E-05  5.75656486746E-05  5.85331159851E-05  5.95168428709E-05
  6.05171025957E-05  6.15341730160E-05  6.25683366577E-05  6.36198807953E-05
  6.46890975311E-05  6.57762838766E-05  6.68817418350E-05  6.80057784851E-05
  6.91487060665E-05  7.03108420664E-05  7.14925093079E-05  7.26940360395E-05
  7.39157560263E-05  7.51580086428E-05  7.64211389672E-05  7.77054978772E-05
  7.90114421474E-05  8.03393345484E-05  8.16895439478E-05  8.30624454125E-05
  8.44584203128E-05  8.58778564285E-05  8.73211480565E-05  8.87886961204E-05
  9.02809082820E-05  9.17981990542E-05  9.33409899163E-05  9.49097094314E-05
  9.65047933650E-05  9.81266848062E-05  9.97758342907E-05  1.01452699926E-04
  1.03157747520E-04  1.04891450707E-04  1.06654291082E-04  1.08446758335E-04
  1.10269350385E-04  1.12122573519E-04  1.14006942533E-04  1.15922980876E-04
  1.17871220792E-04  1.19852203471E-04  1.21866479200E-04  1.23914607513E-04
  1.25997157346E-04  1.28114707200E-04  1.30267845297E-04  1.32457169744E-04
  1.34683288701E-04  1.36946820548E-04  1.39248394059E-04  1.41588648576E-04
  1.43968234183E-04  1.46387811891E-04  1.48848053823E-04  1.51349643393E-04
  1.53893275503E-04  1.56479656736E-04  1.59109505545E-04  1.61783552463E-04
  1.64502540297E-04  1.67267224339E-04  1.70078372574E-04  1.72936765895E-04
  1.75843198318E-04  1.78798477205E-04  1.81803423486E-04  1.84858871886E-04
  1.87965671162E-04  1.91124684333E-04  1.94336788923E-04  1.97602877203E-04
  2.00923856443E-04  2.04300649157E-04  2.07734193365E-04  2.11225442851E-04
  2.14775367430E-04  2.18384953213E-04  2.22055202888E-04  2.25787135992E-04
  2.29581789197E-04  2.33440216597E-04  2.37363490002E-04  2.41352699237E-04
  2.45408952440E-04  2.49533376374E-04  2.53727116740E-04  2.57991338492E-04
  2.62327226163E-04  2.66735984195E-04  2.71218837272E-04  2.75777030658E-04
  2.80411830548E-04  2.85124524417E-04  2.89916421375E-04  2.94788852537E-04
  2.99743171387E-04  3.04780754156E-04  3.09903000206E-04  3.15111332415E-04
  3.20407197576E-04  3.25792066797E-04  3.31267435909E-04  3.36834825883E-04
  3.42495783252E-04  3.48251880541E-04  3.54104716703E-04  3.60055917564E-04
  3.66107136272E-04  3.72260053761E-04  3.78516379214E-04  3.84877850540E-04
  3.91346234854E-04  3.97923328972E-04  4.04610959908E-04  4.11410985378E-04
  4.18325294323E-04  4.25355807428E-04  4.32504477659E-04  4.39773290804E-04
  4.47164266025E-04  4.54679456416E-04  4.62320949581E-04  4.70090868204E-04
  4.77991370646E-04  4.86024651543E-04  4.94192942413E-04  5.02498512278E-04
  5.10943668294E-04  5.19530756392E-04  5.28262161930E-04  5.37140310353E-04
  5.46167667873E-04  5.55346742146E-04  5.64680082973E-04  5.74170283010E-04
  5.83819978484E-04  5.93631849929E-04  6.03608622926E-04  6.13753068867E-04
  6.24068005718E-04  6.34556298806E-04  6.45220861612E-04  6.56064656585E-04
  6.67090695958E-04  6.78302042592E-04  6.89701810821E-04  7.01293167322E-04
  7.13079331990E-04  7.25063578835E-04  7.37249236892E-04  7.49639691144E-04
  7.62238383464E-04  7.75048813570E-04  7.88074539996E-04  8.01319181084E-04
  8.14786415986E-04  8.28479985687E-04  8.42403694045E-04  8.56561408846E-04
  8.70957062879E-04  8.85594655030E-04  9.00478251391E-04  9.15611986390E-04
  9.31000063938E-04  9.46646758603E-04  9.62556416787E-04  9.78733457943E-04
  9.95182375797E-04  1.01190773960E-03  1.02891419539E-03  1.04620646730E-03
  1.06378935884E-03  1.08166775427E-03  1.09984661991E-03  1.11833100558E-03
  1.13712604594E-03  1.15623696196E-03  1.17566906235E-03  1.19542774503E-03
  1.21551849867E-03  1.23594690415E-03  1.25671863616E-03  1.27783946476E-03
  1.29931525699E-03  1.32115197847E-03  1.34335569511E-03  1.36593257475E-03
  1.38888888889E-03  1.41223101443E-03  1.43596543544E-03  1.46009874497E-03
  1.48463764687E-03  1.50958895767E-03  1.53495960844E-03  1.56075664675E-03
  1.58698723861E-03  1.61365867046E-03  1.64077835120E-03  1.66835381426E-03
  1.69639271967E-03  1.72490285618E-03  1.75389214346E-03  1.78336863429E-03
  1.81334051676E-03  1.84381611658E-03  1.87480389941E-03  1.90631247315E-03
  1.93835059040E-03  1.97092715082E-03  2.00405120369E-03  2.03773195033E-03
  2.07197874672E-03  2.10680110609E-03  2.14220870154E-03  2.17821136874E-03
  2.21481910865E-03  2.25204209034E-03  2.28989065375E-03  2.32837531263E-03
  2.36750675739E-03  2.40729585815E-03  2.44775366768E-03  2.48889142452E-03
  2.53072055610E-03  2.57325268188E-03  2.61649961662E-03  2.66047337363E-03
  2.70518616813E-03  2.75065042063E-03  2.79687876038E-03  2.84388402887E-03
  2.89167928344E-03  2.94027780085E-03  2.98969308100E-03  3.03993885067E-03
  3.09102906735E-03  3.14297792309E-03  3.19579984846E-03  3.24950951656E-03
  3.30412184709E-03  3.35965201049E-03  3.41611543216E-03  3.47352779675E-03
  3.53190505251E-03  3.59126341572E-03  3.65161937519E-03  3.71298969685E-03
  3.77539142842E-03  3.83884190410E-03  3.90335874944E-03  3.96895988620E-03
  4.03566353734E-03  4.10348823207E-03  4.17245281104E-03  4.24257643150E-03
  4.31387857270E-03  4.38637904124E-03  4.46009797660E-03  4.53505585675E-03
  4.61127350380E-03  4.68877208981E-03  4.76757314265E-03  4.84769855203E-03
  4.92917057551E-03  5.01201184473E-03  5.09624537169E-03  5.18189455514E-03
  5.26898318706E-03  5.35753545930E-03  5.44757597029E-03  5.53912973185E-03
  5.63222217617E-03  5.72687916287E-03  5.82312698617E-03  5.92099238218E-03
  6.02050253637E-03  6.12168509109E-03  6.22456815325E-03  6.32918030214E-03
  6.43555059737E-03  6.54370858693E-03  6.65368431539E-03  6.76550833229E-03
  6.87921170055E-03  6.99482600519E-03  7.11238336202E-03  7.23191642664E-03
  7.35345840343E-03  7.47704305484E-03  7.60270471073E-03  7.73047827793E-03
  7.86039924991E-03  7.99250371667E-03  8.12682837475E-03  8.26341053741E-03
  8.40228814502E-03  8.54349977558E-03  8.68708465547E-03  8.83308267028E-03
  8.98153437597E-03  9.13248101006E-03  9.28596450317E-03  9.44202749056E-03
  9.60071332408E-03  9.76206608415E-03  9.92613059201E-03  1.00929524222E-02
  1.02625779152E-02  1.04350541902E-02  1.06104291586E-02  1.07887515365E-02
  1.09700708593E-02  1.11544374945E-02  1.13419026563E-02  1.15325184196E-02
  1.17263377343E-02  1.19234144405E-02  1.21238032829E-02  1.23275599265E-02
  1.25347409714E-02  1.27454039695E-02  1.29596074395E-02  1.31774108838E-02
  1.33988748048E-02  1.36240607216E-02  1.38530311872E-02  1.40858498062E-02
  1.43225812518E-02  1.45632912843E-02  1.48080467692E-02  1.50569156956E-02