<PP_INFO>
Original file Na.pbe-n-van.UPF REMOVED 1 March 2005 
GHOST found in conduction band of NaCl 6eV above Ef
Courtesy of Davide Ceresoli and Tatiana Zykova-Timan 
</PP_INFO>

