<PP_INFO>
Generated using "atomic" code by A. Dal Corso  (espresso distribution)     
Author: Matteo Calandra   Generation date:  9May2008                             
Ni                                                                         
    1        The Pseudo was generated with a Scalar-Relativistic Calculation
    2 1.1000000E+00    L component and cutoff radius for Local Potential
nl pn  l   occ               Rcut            Rcut US             E pseu
3S  1  0  2.00      1.10000000000      1.10000000000     -9.35667995644
3P  2  1  6.00      1.10000000000      1.10000000000     -6.66510608413
3D  3  2  8.00      1.10000000000      1.10000000000     -2.09580324730
</PP_INFO>


<PP_HEADER>
   0                   Version Number
  Co                   Element
   NC                  Norm - Conserving pseudopotential
    F                  Nonlinear Core Correction
 SLA  PW   PBX  PBC    PBE  Exchange-Correlation functional
   18.00000000000      Z valence
 -335.52428810380      Total energy
      0.000      0.000 Suggested cutoff for wfc and rho
    2                  Max angular momentum component
 1193                  Number of points in mesh
    6    2             Number of Wavefunctions, Number of Projectors
 Wavefunctions         nl  l   occ
                       3S  0  2.00
                       3P  1  6.00
                       3D  2  8.00
                       4S  0  0.00
                       4P  1  0.00
                       4D  2  0.00
</PP_HEADER>


<PP_MESH>
  <PP_R>
  3.37734061316E-05  3.41982232840E-05  3.46283839784E-05  3.50639554282E-05
  3.55050056924E-05  3.59516036859E-05  3.64038191907E-05  3.68617228663E-05
  3.73253862611E-05  3.77948818234E-05  3.82702829129E-05  3.87516638119E-05
  3.92390997373E-05  3.97326668519E-05  4.02324422764E-05  4.07385041020E-05
  4.12509314017E-05  4.17698042433E-05  4.22952037018E-05  4.28272118720E-05
  4.33659118812E-05  4.39113879023E-05  4.44637251671E-05  4.50230099794E-05
  4.55893297286E-05  4.61627729034E-05  4.67434291054E-05  4.73313890632E-05
  4.79267446469E-05  4.85295888819E-05  4.91400159640E-05  4.97581212735E-05
  5.03840013907E-05  5.10177541106E-05  5.16594784584E-05  5.23092747048E-05
  5.29672443818E-05  5.36334902985E-05  5.43081165571E-05  5.49912285695E-05
  5.56829330732E-05  5.63833381485E-05  5.70925532351E-05  5.78106891493E-05
  5.85378581013E-05  5.92741737128E-05  6.00197510344E-05  6.07747065643E-05
  6.15391582657E-05  6.23132255858E-05  6.30970294742E-05  6.38906924018E-05
  6.46943383800E-05  6.55080929803E-05  6.63320833534E-05  6.71664382494E-05
  6.80112880381E-05  6.88667647289E-05  6.97330019918E-05  7.06101351782E-05
  7.14983013418E-05  7.23976392604E-05  7.33082894575E-05  7.42303942240E-05
  7.51640976406E-05  7.61095456004E-05  7.70668858315E-05  7.80362679203E-05
  7.90178433347E-05  8.00117654480E-05  8.10181895623E-05  8.20372729336E-05
  8.30691747958E-05  8.41140563855E-05  8.51720809676E-05  8.62434138607E-05
  8.73282224626E-05  8.84266762770E-05  8.95389469394E-05  9.06652082445E-05
  9.18056361728E-05  9.29604089186E-05  9.41297069174E-05  9.53137128744E-05
  9.65126117929E-05  9.77265910034E-05  9.89558401926E-05  1.00200551433E-04
  1.01460919214E-04  1.02737140469E-04  1.04029414612E-04  1.05337943563E-04
  1.06662931781E-04  1.08004586300E-04  1.09363116755E-04  1.10738735419E-04
  1.12131657236E-04  1.13542099853E-04  1.14970283654E-04  1.16416431795E-04
  1.17880770241E-04  1.19363527797E-04  1.20864936147E-04  1.22385229890E-04
  1.23924646573E-04  1.25483426735E-04  1.27061813937E-04  1.28660054806E-04
  1.30278399071E-04  1.31917099600E-04  1.33576412445E-04  1.35256596876E-04
  1.36957915425E-04  1.38680633928E-04  1.40425021561E-04  1.42191350890E-04
  1.43979897907E-04  1.45790942075E-04  1.47624766375E-04  1.49481657345E-04
  1.51361905128E-04  1.53265803517E-04  1.55193649999E-04  1.57145745805E-04
  1.59122395954E-04  1.61123909300E-04  1.63150598585E-04  1.65202780484E-04
  1.67280775652E-04  1.69384908783E-04  1.71515508649E-04  1.73672908163E-04
  1.75857444423E-04  1.78069458765E-04  1.80309296823E-04  1.82577308576E-04
  1.84873848404E-04  1.87199275147E-04  1.89553952158E-04  1.91938247360E-04
  1.94352533303E-04  1.96797187225E-04  1.99272591108E-04  2.01779131738E-04
  2.04317200769E-04  2.06887194778E-04  2.09489515332E-04  2.12124569048E-04
  2.14792767661E-04  2.17494528080E-04  2.20230272462E-04  2.23000428272E-04
  2.25805428352E-04  2.28645710991E-04  2.31521719986E-04  2.34433904722E-04
  2.37382720232E-04  2.40368627275E-04  2.43392092405E-04  2.46453588044E-04
  2.49553592559E-04  2.52692590330E-04  2.55871071832E-04  2.59089533709E-04
  2.62348478854E-04  2.65648416482E-04  2.68989862215E-04  2.72373338162E-04
  2.75799372997E-04  2.79268502045E-04  2.82781267365E-04  2.86338217833E-04
  2.89939909231E-04  2.93586904329E-04  2.97279772978E-04  3.01019092196E-04
  3.04805446260E-04  3.08639426795E-04  3.12521632869E-04  3.16452671083E-04
  3.20433155671E-04  3.24463708592E-04  3.28544959627E-04  3.32677546481E-04
  3.36862114878E-04  3.41099318665E-04  3.45389819916E-04  3.49734289028E-04
  3.54133404835E-04  3.58587854707E-04  3.63098334660E-04  3.67665549467E-04
  3.72290212764E-04  3.76973047165E-04  3.81714784370E-04  3.86516165288E-04
  3.91377940143E-04  3.96300868597E-04  4.01285719868E-04  4.06333272849E-04
  4.11444316231E-04  4.16619648625E-04  4.21860078686E-04  4.27166425242E-04
  4.32539517422E-04  4.37980194781E-04  4.43489307437E-04  4.49067716200E-04
  4.54716292706E-04  4.60435919559E-04  4.66227490461E-04  4.72091910356E-04
  4.78030095573E-04  4.84042973965E-04  4.90131485057E-04  4.96296580190E-04
  5.02539222674E-04  5.08860387934E-04  5.15261063664E-04  5.21742249984E-04
  5.28304959593E-04  5.34950217925E-04  5.41679063318E-04  5.48492547167E-04
  5.55391734092E-04  5.62377702105E-04  5.69451542779E-04  5.76614361414E-04
  5.83867277217E-04  5.91211423469E-04  5.98647947710E-04  6.06178011910E-04
  6.13802792658E-04  6.21523481341E-04  6.29341284332E-04  6.37257423180E-04
  6.45273134796E-04  6.53389671653E-04  6.61608301975E-04  6.69930309940E-04
  6.78356995879E-04  6.86889676479E-04  6.95529684988E-04  7.04278371426E-04
  7.13137102792E-04  7.22107263281E-04  7.31190254500E-04  7.40387495683E-04
  7.49700423919E-04  7.59130494371E-04  7.68679180507E-04  7.78347974330E-04
  7.88138386607E-04  7.98051947110E-04  8.08090204853E-04  8.18254728336E-04
  8.28547105784E-04  8.38968945403E-04  8.49521875627E-04  8.60207545372E-04
  8.71027624297E-04  8.81983803059E-04  8.93077793586E-04  9.04311329334E-04
  9.15686165568E-04  9.27204079628E-04  9.38866871212E-04  9.50676362655E-04
  9.62634399213E-04  9.74742849355E-04  9.87003605050E-04  9.99418582067E-04
  1.01198972027E-03  1.02471898393E-03  1.03760836201E-03  1.05065986851E-03
  1.06387554275E-03  1.07725744971E-03  1.09080768034E-03  1.10452835188E-03
  1.11842160823E-03  1.13248962024E-03  1.14673458604E-03  1.16115873146E-03
  1.17576431030E-03  1.19055360470E-03  1.20552892552E-03  1.22069261269E-03
  1.23604703557E-03  1.25159459331E-03  1.26733771525E-03  1.28327886128E-03
  1.29942052225E-03  1.31576522032E-03  1.33231550939E-03  1.34907397546E-03
  1.36604323708E-03  1.38322594574E-03  1.40062478627E-03  1.41824247727E-03
  1.43608177155E-03  1.45414545652E-03  1.47243635467E-03  1.49095732401E-03
  1.50971125846E-03  1.52870108836E-03  1.54792978092E-03  1.56740034066E-03
  1.58711580989E-03  1.60707926919E-03  1.62729383790E-03  1.64776267459E-03
  1.66848897754E-03  1.68947598529E-03  1.71072697710E-03  1.73224527348E-03
  1.75403423671E-03  1.77609727136E-03  1.79843782482E-03  1.82105938784E-03
  1.84396549511E-03  1.86715972573E-03  1.89064570386E-03  1.91442709922E-03
  1.93850762772E-03  1.96289105198E-03  1.98758118195E-03  2.01258187553E-03
  2.03789703913E-03  2.06353062828E-03  2.08948664829E-03  2.11576915484E-03
  2.14238225462E-03  2.16933010599E-03  2.19661691961E-03  2.22424695909E-03
  2.25222454167E-03  2.28055403893E-03  2.30923987740E-03  2.33828653929E-03
  2.36769856321E-03  2.39748054485E-03  2.42763713770E-03  2.45817305380E-03
  2.48909306444E-03  2.52040200093E-03  2.55210475536E-03  2.58420628135E-03
  2.61671159483E-03  2.64962577482E-03  2.68295396423E-03  2.71670137066E-03
  2.75087326720E-03  2.78547499328E-03  2.82051195550E-03  2.85598962846E-03
  2.89191355560E-03  2.92828935012E-03  2.96512269580E-03  3.00241934795E-03
  3.04018513422E-03  3.07842595560E-03  3.11714778731E-03  3.15635667970E-03
  3.19605875924E-03  3.23626022946E-03  3.27696737193E-03  3.31818654722E-03
  3.35992419590E-03  3.40218683958E-03  3.44498108188E-03  3.48831360947E-03
  3.53219119317E-03  3.57662068892E-03  3.62160903894E-03  3.66716327273E-03
  3.71329050825E-03  3.75999795297E-03  3.80729290501E-03  3.85518275432E-03
  3.90367498377E-03  3.95277717039E-03  4.00249698648E-03  4.05284220086E-03
  4.10382068009E-03  4.15544038964E-03  4.20770939521E-03  4.26063586394E-03
  4.31422806569E-03  4.36849437434E-03  4.42344326914E-03  4.47908333594E-03
  4.53542326863E-03  4.59247187043E-03  4.65023805530E-03  4.70873084933E-03
  4.76795939214E-03  4.82793293830E-03  4.88866085881E-03  4.95015264252E-03
  5.01241789765E-03  5.07546635328E-03  5.13930786085E-03  5.20395239573E-03
  5.26941005876E-03  5.33569107783E-03  5.40280580949E-03  5.47076474055E-03
  5.53957848973E-03  5.60925780932E-03  5.67981358685E-03  5.75125684681E-03
  5.82359875236E-03  5.89685060706E-03  5.97102385666E-03  6.04613009089E-03
  6.12218104524E-03  6.19918860284E-03  6.27716479628E-03  6.35612180948E-03
  6.43607197965E-03  6.51702779915E-03  6.59900191751E-03  6.68200714335E-03
  6.76605644640E-03  6.85116295953E-03  6.93733998081E-03  7.02460097558E-03
  7.11295957855E-03  7.20242959592E-03  7.29302500756E-03  7.38475996921E-03
  7.47764881462E-03  7.57170605787E-03  7.66694639560E-03  7.76338470930E-03
  7.86103606766E-03  7.95991572889E-03  8.06003914316E-03  8.16142195493E-03
  8.26408000550E-03  8.36802933537E-03  8.47328618686E-03  8.57986700655E-03
  8.68778844792E-03  8.79706737391E-03  8.90772085957E-03  9.01976619474E-03
  9.13322088673E-03  9.24810266306E-03  9.36442947425E-03  9.48221949660E-03
  9.60149113503E-03  9.72226302599E-03  9.84455404033E-03  9.96838328627E-03
  1.00937701124E-02  1.02207341106E-02  1.03492951193E-02  1.04794732264E-02
  1.06112887726E-02  1.07447623542E-02  1.08799148268E-02  1.10167673082E-02
  1.11553411819E-02  1.12956581004E-02  1.14377399884E-02  1.15816090466E-02
  1.17272877548E-02  1.18747988755E-02  1.20241654577E-02  1.21754108402E-02
  1.23285586555E-02  1.24836328331E-02  1.26406576037E-02  1.27996575029E-02
  1.29606573745E-02  1.31236823752E-02  1.32887579780E-02  1.34559099763E-02
  1.36251644878E-02  1.37965479591E-02  1.39700871690E-02  1.41458092335E-02
  1.43237416094E-02  1.45039120991E-02  1.46863488546E-02  1.48710803820E-02
  1.50581355459E-02  1.52475435742E-02  1.54393340622E-02  1.56335369775E-02
  1.58301826648E-02  1.60293018503E-02  1.62309256468E-02  1.64350855586E-02
  1.66418134858E-02  1.68511417303E-02  1.70631030000E-02  1.72777304142E-02
  1.74950575089E-02  1.77151182420E-02  1.79379469983E-02  1.81635785954E-02
  1.83920482886E-02  1.86233917767E-02  1.88576452077E-02  1.90948451841E-02
  1.93350287689E-02  1.95782334913E-02  1.98244973526E-02  2.00738588318E-02
  2.03263568924E-02  2.05820309875E-02  2.08409210669E-02  2.11030675826E-02
  2.13685114956E-02  2.16372942819E-02  2.19094579395E-02  2.21850449945E-02
  2.24640985079E-02  2.27466620824E-02  2.30327798691E-02  2.33224965745E-02
  2.36158574675E-02  2.39129083862E-02  2.42136957455E-02  2.45182665441E-02
  2.48266683717E-02  2.51389494167E-02  2.54551584737E-02  2.57753449511E-02
  2.60995588785E-02  2.64278509151E-02  2.67602723571E-02  2.70968751462E-02
  2.74377118771E-02  2.77828358063E-02  2.81323008602E-02  2.84861616433E-02
  2.88444734471E-02  2.92072922586E-02  2.95746747689E-02  2.99466783823E-02
  3.03233612251E-02  3.07047821548E-02  3.10910007692E-02  3.14820774158E-02
  3.18780732009E-02  3.22790499999E-02  3.26850704661E-02  3.30961980411E-02
  3.35124969643E-02  3.39340322834E-02  3.43608698640E-02  3.47930764005E-02
  3.52307194260E-02  3.56738673230E-02  3.61225893344E-02  3.65769555738E-02
  3.70370370370E-02  3.75029056126E-02  3.79746340935E-02  3.84522961882E-02
  3.89359665324E-02  3.94257207007E-02  3.99216352179E-02  4.04237875720E-02
  4.09322562250E-02  4.14471206264E-02  4.19684612247E-02  4.24963594804E-02
  4.30308978788E-02  4.35721599425E-02  4.41202302449E-02  4.46751944230E-02
  4.52371391911E-02  4.58061523543E-02  4.63823228219E-02  4.69657406219E-02
  4.75564969144E-02  4.81546840062E-02  4.87603953655E-02  4.93737256357E-02
  4.99947706510E-02  5.06236274509E-02  5.12603942956E-02  5.19051706812E-02
  5.25580573553E-02  5.32191563328E-02  5.38885709118E-02  5.45664056896E-02
  5.52527665793E-02  5.59477608262E-02  5.66514970246E-02  5.73640851346E-02
  5.80856364996E-02  5.88162638636E-02  5.95560813884E-02  6.03052046721E-02
  6.10637507667E-02  6.18318381966E-02  6.26095869770E-02  6.33971186328E-02
  6.41945562173E-02  6.50020243319E-02  6.58196491450E-02  6.66475584122E-02
  6.74858814959E-02  6.83347493860E-02  6.91942947197E-02  7.00646518027E-02
  7.09459566301E-02  7.18383469076E-02  7.27419620730E-02  7.36569433179E-02
  7.45834336100E-02  7.55215777154E-02  7.64715222210E-02  7.74334155575E-02
  7.84074080227E-02  7.93936518049E-02  8.03923010068E-02  8.14035116692E-02
  8.24274417960E-02  8.34642513783E-02  8.45141024196E-02  8.55771589614E-02
  8.66535871084E-02  8.77435550546E-02  8.88472331099E-02  8.99647937261E-02
  9.10964115243E-02  9.22422633222E-02  9.34025281614E-02  9.45773873357E-02
  9.57670244191E-02  9.69716252950E-02  9.81913781845E-02  9.94264736767E-02
  1.00677104758E-01  1.01943466841E-01  1.03225757799E-01  1.04524177991E-01
  1.05838930299E-01  1.07170220155E-01  1.08518255575E-01  1.09883247194E-01
  1.11265408294E-01  1.12664954841E-01  1.14082105515E-01  1.15517081751E-01
  1.16970107766E-01  1.18441410599E-01  1.19931220142E-01  1.21439769183E-01
  1.22967293435E-01  1.24514031576E-01  1.26080225289E-01  1.27666119293E-01
  1.29271961387E-01  1.30898002489E-01  1.32544496670E-01  1.34211701199E-01
  1.35899876578E-01  1.37609286590E-01  1.39340198333E-01  1.41092882266E-01
  1.42867612248E-01  1.44664665585E-01  1.46484323071E-01  1.48326869030E-01
  1.50192591365E-01  1.52081781597E-01  1.53994734917E-01  1.55931750228E-01
  1.57893130191E-01  1.59879181278E-01  1.61890213812E-01  1.63926542022E-01
  1.65988484087E-01  1.68076362190E-01  1.70190502567E-01  1.72331235556E-01
  1.74498895652E-01  1.76693821554E-01  1.78916356226E-01  1.81166846943E-01
  1.83445645348E-01  1.85753107508E-01  1.88089593970E-01  1.90455469813E-01
  1.92851104710E-01  1.95276872986E-01  1.97733153669E-01  2.00220330561E-01
  2.02738792286E-01  2.05288932360E-01  2.07871149248E-01  2.10485846425E-01
  2.13133432445E-01  2.15814320996E-01  2.18528930975E-01  2.21277686543E-01
  2.24061017200E-01  2.26879357847E-01  2.29733148856E-01  2.32622836136E-01
  2.35548871207E-01  2.38511711269E-01  2.41511819271E-01  2.44549663987E-01
  2.47625720084E-01  2.50740468205E-01  2.53894395033E-01  2.57087993378E-01
  2.60321762244E-01  2.63596206915E-01  2.66911839030E-01  2.70269176663E-01
  2.73668744405E-01  2.77111073445E-01  2.80596701653E-01  2.84126173667E-01
  2.87700040974E-01  2.91318861998E-01  2.94983202186E-01  2.98693634100E-01
  3.02450737503E-01  3.06255099448E-01  3.10107314375E-01  3.14007984201E-01
  3.17957718414E-01  3.21957134167E-01  3.26006856377E-01  3.30107517822E-01
  3.34259759238E-01  3.38464229422E-01  3.42721585330E-01  3.47032492183E-01
  3.51397623569E-01  3.55817661548E-01  3.60293296761E-01  3.64825228535E-01
  3.69414164993E-01  3.74060823166E-01  3.78765929103E-01  3.83530217988E-01
  3.88354434249E-01  3.93239331681E-01  3.98185673558E-01  4.03194232757E-01
  4.08265791876E-01  4.13401143354E-01  4.18601089603E-01  4.23866443123E-01
  4.29198026638E-01  4.34596673217E-01  4.40063226411E-01  4.45598540379E-01
  4.51203480026E-01  4.56878921135E-01  4.62625750504E-01  4.68444866088E-01
  4.74337177136E-01  4.80303604332E-01  4.86345079944E-01  4.92462547964E-01
  4.98656964259E-01  5.04929296720E-01  5.11280525410E-01  5.17711642722E-01
  5.24223653532E-01  5.30817575355E-01  5.37494438503E-01  5.44255286251E-01
  5.51101174995E-01  5.58033174419E-01  5.65052367661E-01  5.72159851486E-01
  5.79356736451E-01  5.86644147086E-01  5.94023222061E-01  6.01495114374E-01
  6.09060991522E-01  6.16722035689E-01  6.24479443929E-01  6.32334428353E-01
  6.40288216317E-01  6.48342050618E-01  6.56497189684E-01  6.64754907771E-01
  6.73116495165E-01  6.81583258380E-01  6.90156520367E-01  6.98837620714E-01
  7.07627915860E-01  7.16528779309E-01  7.25541601837E-01  7.34667791716E-01
  7.43908774933E-01  7.53265995409E-01  7.62740915229E-01  7.72335014870E-01
  7.82049793427E-01  7.91886768856E-01  8.01847478204E-01  8.11933477852E-01
  8.22146343757E-01  8.32487671701E-01  8.42959077538E-01  8.53562197446E-01
  8.64298688183E-01  8.75170227349E-01  8.86178513644E-01  8.97325267134E-01
  9.08612229523E-01  9.20041164421E-01  9.31613857623E-01  9.43332117386E-01
  9.55197774711E-01  9.67212683632E-01  9.79378721502E-01  9.91697789291E-01
  1.00417181188E+00  1.01680273835E+00  1.02959254232E+00  1.04254322222E+00
  1.05565680162E+00  1.06893532954E+00  1.08238088079E+00  1.09599555624E+00
  1.10978148324E+00  1.12374081584E+00  1.13787573524E+00  1.15218845004E+00
  1.16668119662E+00  1.18135623952E+00  1.19621587173E+00  1.21126241510E+00
  1.22649822069E+00  1.24192566913E+00  1.25754717097E+00  1.27336516712E+00
  1.28938212917E+00  1.30560055980E+00  1.32202299317E+00  1.33865199533E+00
  1.35549016458E+00  1.37254013193E+00  1.38980456147E+00  1.40728615079E+00
  1.42498763145E+00  1.44291176931E+00  1.46106136508E+00  1.47943925466E+00
  1.49804830963E+00  1.51689143770E+00  1.53597158314E+00  1.55529172727E+00
  1.57485488889E+00  1.59466412479E+00  1.61472253021E+00  1.63503323931E+00
  1.65559942568E+00  1.67642430282E+00  1.69751112468E+00  1.71886318610E+00
  1.74048382339E+00  1.76237641482E+00  1.78454438115E+00  1.80699118617E+00
  1.82972033724E+00  1.85273538584E+00  1.87603992811E+00  1.89963760543E+00
  1.92353210499E+00  1.94772716036E+00  1.97222655206E+00  1.99703410818E+00
  2.02215370493E+00  2.04758926732E+00  2.07334476969E+00  2.09942423640E+00
  2.12583174242E+00  2.15257141398E+00  2.17964742920E+00  2.20706401876E+00
  2.23482546657E+00  2.26293611040E+00  2.29140034261E+00  2.32022261078E+00
  2.34940741845E+00  2.37895932581E+00  2.40888295041E+00  2.43918296787E+00
  2.46986411263E+00  2.50093117868E+00  2.53238902032E+00  2.56424255289E+00
  2.59649675358E+00  2.62915666217E+00  2.66222738184E+00  2.69571407995E+00
  2.72962198887E+00  2.76395640679E+00  2.79872269851E+00  2.83392629635E+00
  2.86957270094E+00  2.90566748210E+00  2.94221627971E+00  2.97922480461E+00
  3.01669883944E+00  3.05464423961E+00  3.09306693415E+00  3.13197292669E+00
  3.17136829638E+00  3.21125919881E+00  3.25165186703E+00  3.29255261246E+00
  3.33396782595E+00  3.37590397868E+00  3.41836762328E+00  3.46136539478E+00
  3.50490401166E+00  3.54899027693E+00  3.59363107915E+00  3.63883339353E+00
  3.68460428303E+00  3.73095089946E+00  3.77788048454E+00  3.82540037115E+00
  3.87351798434E+00  3.92224084260E+00  3.97157655896E+00  4.02153284225E+00
  4.07211749823E+00  4.12333843085E+00  4.17520364348E+00  4.22772124019E+00
  4.28089942693E+00  4.33474651292E+00  4.38927091188E+00  4.44448114334E+00
  4.50038583403E+00  4.55699371915E+00  4.61431364382E+00  4.67235456438E+00
  4.73112554985E+00  4.79063578331E+00  4.85089456336E+00  4.91191130556E+00
  4.97369554389E+00  5.03625693226E+00  5.09960524603E+00  5.16375038350E+00
  5.22870236746E+00  5.29447134681E+00  5.36106759808E+00  5.42850152707E+00
  5.49678367047E+00  5.56592469749E+00  5.63593541158E+00  5.70682675204E+00
  5.77860979579E+00  5.85129575908E+00  5.92489599924E+00  5.99942201645E+00
  6.07488545555E+00  6.15129810787E+00  6.22867191303E+00  6.30701896085E+00
  6.38635149322E+00  6.46668190600E+00  6.54802275098E+00  6.63038673784E+00
  6.71378673612E+00  6.79823577723E+00  6.88374705652E+00  6.97033393529E+00
  7.05800994291E+00  7.14678877895E+00  7.23668431528E+00  7.32771059825E+00
  7.41988185092E+00  7.51321247522E+00  7.60771705425E+00  7.70341035455E+00
  7.80030732840E+00  7.89842311613E+00  7.99777304854E+00  8.09837264927E+00
  8.20023763719E+00  8.30338392893E+00  8.40782764131E+00  8.51358509385E+00
  8.62067281139E+00  8.72910752660E+00  8.83890618262E+00  8.95008593571E+00
  9.06266415793E+00  9.17665843987E+00  9.29208659336E+00  9.40896665429E+00
  9.52731688540E+00  9.64715577915E+00  9.76850206063E+00  9.89137469042E+00
  1.00157928676E+01  1.01417760329E+01  1.02693438712E+01  1.03985163155E+01
  1.05293135490E+01  1.06617560093E+01  1.07958643906E+01  1.09316596476E+01
  1.10691629988E+01  1.12083959292E+01  1.13493801942E+01  1.14921378230E+01
  1.16366911217E+01  1.17830626771E+01  1.19312753599E+01  1.20813523289E+01
  1.22333170337E+01  1.23871932192E+01  1.25430049288E+01  1.27007765085E+01
  1.28605326103E+01  1.30222981965E+01  1.31860985434E+01  1.33519592449E+01
  1.35199062172E+01  1.36899657024E+01  1.38621642726E+01  1.40365288342E+01
  1.42130866319E+01  1.43918652533E+01  1.45728926330E+01  1.47561970568E+01
  1.49418071664E+01  1.51297519638E+01  1.53200608157E+01  1.55127634582E+01
  1.57078900017E+01  1.59054709348E+01  1.61055371302E+01  1.63081198486E+01
  1.65132507438E+01  1.67209618681E+01  1.69312856766E+01  1.71442550330E+01
  1.73599032142E+01  1.75782639155E+01  1.77993712563E+01  1.80232597851E+01
  1.82499644849E+01  1.84795207788E+01  1.87119645354E+01  1.89473320746E+01
  1.91856601729E+01  1.94269860697E+01  1.96713474725E+01  1.99187825634E+01
  2.01693300047E+01  2.04230289447E+01  2.06799190246E+01  2.09400403839E+01
  2.12034336672E+01  2.14701400301E+01  2.17402011460E+01  2.20136592126E+01
  2.22905569582E+01  2.25709376487E+01  2.28548450942E+01  2.31423236557E+01
  2.34334182523E+01  2.37281743682E+01  2.40266380597E+01  2.43288559622E+01
  2.46348752979E+01  2.49447438831E+01  2.52585101352E+01  2.55762230809E+01
  2.58979323636E+01  2.62236882508E+01  2.65535416427E+01  2.68875440795E+01
  2.72257477497E+01  2.75682054984E+01  2.79149708354E+01  2.82660979433E+01
  2.86216416865E+01  2.89816576195E+01  2.93462019954E+01  2.97153317751E+01
  3.00891046358E+01  3.04675789804E+01  3.08508139462E+01  3.12388694144E+01
  3.16318060195E+01  3.20296851586E+01  3.24325690013E+01  3.28405204988E+01
  3.32536033945E+01  3.36718822333E+01  3.40954223723E+01  3.45242899903E+01
  3.49585520989E+01  3.53982765525E+01  3.58435320587E+01  3.62943881897E+01
  3.67509153928E+01  3.72131850011E+01  3.76812692453E+01  3.81552412645E+01
  3.86351751178E+01  3.91211457958E+01  3.96132292324E+01  4.01115023166E+01
  4.06160429048E+01  4.11269298322E+01  4.16442429261E+01  4.21680630177E+01
  4.26984719549E+01  4.32355526153E+01  4.37793889187E+01  4.43300658407E+01
  4.48876694257E+01  4.54522868003E+01  4.60240061872E+01  4.66029169188E+01
  4.71891094509E+01  4.77826753773E+01  4.83837074441E+01  4.89922995635E+01
  4.96085468294E+01  5.02325455317E+01  5.08643931715E+01  5.15041884761E+01
  5.21520314150E+01  5.28080232149E+01  5.34722663759E+01  5.41448646872E+01
  5.48259232439E+01  5.55155484626E+01  5.62138480987E+01  5.69209312629E+01
  5.76369084384E+01  5.83618914982E+01  5.90959937222E+01  5.98393298155E+01
  6.05920159258E+01  6.13541696618E+01  6.21259101118E+01  6.29073578615E+01
  6.36986350139E+01  6.44998652077E+01  6.53111736365E+01  6.61326870692E+01
  6.69645338687E+01  6.78068440130E+01  6.86597491145E+01  6.95233824415E+01
  7.03978789385E+01  7.12833752473E+01  7.21800097285E+01  7.30879224831E+01
  7.40072553742E+01  7.49381520496E+01  7.58807579637E+01  7.68352204006E+01
  7.78016884970E+01  7.87803132656E+01  7.97712476184E+01  8.07746463909E+01
  8.17906663662E+01  8.28194662996E+01  8.38612069430E+01  8.49160510707E+01
  8.59841635041E+01  8.70657111380E+01  8.81608629664E+01  8.92697901090E+01
  9.03926658379E+01  9.15296656048E+01  9.26809670682E+01  9.38467501212E+01
  9.50271969198E+01  9.62224919113E+01  9.74328218629E+01  9.86583758912E+01
  9.98993454914E+01
  </PP_R>
  <PP_RAB>
  4.22167576646E-07  4.27477791050E-07  4.32854799730E-07  4.38299442852E-07
  4.43812571155E-07  4.49395046074E-07  4.55047739884E-07  4.60771535828E-07
  4.66567328263E-07  4.72436022792E-07  4.78378536411E-07  4.84395797649E-07
  4.90488746716E-07  4.96658335648E-07  5.02905528455E-07  5.09231301275E-07
  5.15636642521E-07  5.22122553041E-07  5.28690046273E-07  5.35340148400E-07
  5.42073898514E-07  5.48892348778E-07  5.55796564588E-07  5.62787624743E-07
  5.69866621608E-07  5.77034661293E-07  5.84292863817E-07  5.91642363290E-07
  5.99084308086E-07  6.06619861024E-07  6.14250199550E-07  6.21976515918E-07
  6.29800017383E-07  6.37721926382E-07  6.45743480730E-07  6.53865933810E-07
  6.62090554772E-07  6.70418628731E-07  6.78851456964E-07  6.87390357119E-07
  6.96036663416E-07  7.04791726857E-07  7.13656915439E-07  7.22633614367E-07
  7.31723226267E-07  7.40927171410E-07  7.50246887930E-07  7.59683832054E-07
  7.69239478321E-07  7.78915319822E-07  7.88712868427E-07  7.98633655022E-07
  8.08679229751E-07  8.18851162254E-07  8.29151041917E-07  8.39580478118E-07
  8.50141100476E-07  8.60834559111E-07  8.71662524898E-07  8.82626689727E-07
  8.93728766772E-07  9.04970490755E-07  9.16353618219E-07  9.27879927800E-07
  9.39551220507E-07  9.51369320004E-07  9.63336072893E-07  9.75453349004E-07
  9.87723041684E-07  1.00014706810E-06  1.01272736953E-06  1.02546591167E-06
  1.03836468495E-06  1.05142570482E-06  1.06465101209E-06  1.07804267326E-06
  1.09160278078E-06  1.10533345346E-06  1.11923683674E-06  1.13331510306E-06
  1.14757045216E-06  1.16200511148E-06  1.17662133647E-06  1.19142141093E-06
  1.20640764741E-06  1.22158238754E-06  1.23694800241E-06  1.25250689291E-06
  1.26826149017E-06  1.28421425587E-06  1.30036768265E-06  1.31672429453E-06
  1.33328664726E-06  1.35005732875E-06  1.36703895943E-06  1.38423419274E-06
  1.40164571545E-06  1.41927624816E-06  1.43712854567E-06  1.45520539744E-06
  1.47350962801E-06  1.49204409746E-06  1.51081170184E-06  1.52981537362E-06
  1.54905808216E-06  1.56854283418E-06  1.58827267421E-06  1.60825068508E-06
  1.62847998839E-06  1.64896374500E-06  1.66970515556E-06  1.69070746095E-06
  1.71197394282E-06  1.73350792409E-06  1.75531276951E-06  1.77739188612E-06
  1.79974872383E-06  1.82238677594E-06  1.84530957969E-06  1.86852071681E-06
  1.89202381410E-06  1.91582254396E-06  1.93992062499E-06  1.96432182257E-06
  1.98902994942E-06  2.01404886625E-06  2.03938248232E-06  2.06503475605E-06
  2.09100969565E-06  2.11731135978E-06  2.14394385812E-06  2.17091135204E-06
  2.19821805528E-06  2.22586823457E-06  2.25386621029E-06  2.28221635720E-06
  2.31092310505E-06  2.33999093934E-06  2.36942440198E-06  2.39922809200E-06
  2.42940666629E-06  2.45996484031E-06  2.49090738885E-06  2.52223914673E-06
  2.55396500961E-06  2.58608993472E-06  2.61861894164E-06  2.65155711311E-06
  2.68490959576E-06  2.71868160100E-06  2.75287840577E-06  2.78750535340E-06
  2.82256785441E-06  2.85807138738E-06  2.89402149983E-06  2.93042380902E-06
  2.96728400290E-06  3.00460784093E-06  3.04240115506E-06  3.08066985056E-06
  3.11941990698E-06  3.15865737912E-06  3.19838839790E-06  3.23861917137E-06
  3.27935598567E-06  3.32060520602E-06  3.36237327769E-06  3.40466672703E-06
  3.44749216246E-06  3.49085627557E-06  3.53476584206E-06  3.57922772292E-06
  3.62424886538E-06  3.66983630411E-06  3.71599716222E-06  3.76273865245E-06
  3.81006807825E-06  3.85799283494E-06  3.90652041086E-06  3.95565838854E-06
  4.00541444589E-06  4.05579635740E-06  4.10681199534E-06  4.15846933101E-06
  4.21077643597E-06  4.26374148332E-06  4.31737274895E-06  4.37167861285E-06
  4.42666756044E-06  4.48234818383E-06  4.53872918325E-06  4.59581936834E-06
  4.65362765955E-06  4.71216308956E-06  4.77143480463E-06  4.83145206610E-06
  4.89222425178E-06  4.95376085746E-06  5.01607149835E-06  5.07916591062E-06
  5.14305395289E-06  5.20774560781E-06  5.27325098357E-06  5.33958031553E-06
  5.40674396778E-06  5.47475243477E-06  5.54361634296E-06  5.61334645249E-06
  5.68395365883E-06  5.75544899448E-06  5.82784363076E-06  5.90114887945E-06
  5.97537619467E-06  6.05053717457E-06  6.12664356321E-06  6.20370725238E-06
  6.28174028343E-06  6.36075484917E-06  6.44076329580E-06  6.52177812481E-06
  6.60381199491E-06  6.68687772407E-06  6.77098829148E-06  6.85615683959E-06
  6.94239667615E-06  7.02972127631E-06  7.11814428473E-06  7.20767951768E-06
  7.29834096521E-06  7.39014279337E-06  7.48309934637E-06  7.57722514888E-06
  7.67253490822E-06  7.76904351676E-06  7.86676605415E-06  7.96571778975E-06
  8.06591418495E-06  8.16737089566E-06  8.27010377468E-06  8.37412887425E-06
  8.47946244849E-06  8.58612095599E-06  8.69412106235E-06  8.80347964283E-06
  8.91421378490E-06  9.02634079102E-06  9.13987818125E-06  9.25484369604E-06
  9.37125529898E-06  9.48913117964E-06  9.60848975634E-06  9.72934967912E-06
  9.85172983258E-06  9.97564933887E-06  1.01011275607E-05  1.02281841042E-05
  1.03568388223E-05  1.04871118175E-05  1.06190234453E-05  1.07525943172E-05
  1.08878453037E-05  1.10247975382E-05  1.11634724198E-05  1.13038916167E-05
  1.14460770696E-05  1.15900509954E-05  1.17358358902E-05  1.18834545332E-05
  1.20329299902E-05  1.21842856169E-05  1.23375450631E-05  1.24927322758E-05
  1.26498715034E-05  1.28089872991E-05  1.29701045251E-05  1.31332483563E-05
  1.32984442844E-05  1.34657181214E-05  1.36350960042E-05  1.38066043986E-05
  1.39802701029E-05  1.41561202529E-05  1.43341823255E-05  1.45144841433E-05