<PP_INFO>
Generated using ld1 code (trou)
Author: P. Giannozzi  Generation date: 2001
Info: Phosphorus BLYP 3s1.5 3p2.5 3d0, l=1 local, Martins-Troullier
    0        The Pseudo was generated with a Non-Relativistic Calculation
  0.00000000000E+00    Local Potential cutoff radius
nl pn  l   occ               Rcut            Rcut US             E pseu
3S  0  0  1.50      1.48000000000      0.00000000000      0.00000000000
3P  0  1  2.50      1.64000000000      0.00000000000      0.00000000000
3D  0  2  0.00      2.70000000000      0.00000000000      0.00000000000
</PP_INFO>


<PP_HEADER>
   0                   Version Number
   P                   Element
   NC                  Norm - Conserving pseudopotential
    F                  Nonlinear Core Correction
 SLA  LYP  B88  BLYP   BLYP Exchange-Correlation functional
    5.00000000000      Z valence
    0.00000000000      Total energy
  0.0000000  0.0000000 Suggested cutoff for wfc and rho
    2                  Max angular momentum component
  297                  Number of points in mesh
    3    2             Number of Wavefunctions, Number of Projectors
 Wavefunctions         nl  l   occ
                       3S  0  1.50
                       3P  1  2.50
                       3D  2  0.00
</PP_HEADER>


<PP_MESH>
  <PP_R>
  2.23641751935E-05  2.35108109752E-05  2.47162360306E-05  2.59834645502E-05
  2.73156652653E-05  2.87161693717E-05  3.01884788591E-05  3.17362752682E-05
  3.33634288960E-05  3.50740084744E-05  3.68722913432E-05  3.87627741463E-05
  4.07501840753E-05  4.28394906904E-05  4.50359183463E-05  4.73449592562E-05
  4.97723872251E-05  5.23242720874E-05  5.50069948844E-05  5.78272638205E-05
  6.07921310370E-05  6.39090102463E-05  6.71856952699E-05  7.06303795272E-05
  7.42516765230E-05  7.80586413861E-05  8.20607935116E-05  8.62681403644E-05
  9.06912025032E-05  9.53410398872E-05  1.00229279532E-04  1.05368144582E-04
  1.10770484878E-04  1.16449809084E-04  1.22420318469E-04  1.28696942415E-04
  1.35295375753E-04  1.42232118003E-04  1.49524514632E-04  1.57190800433E-04
  1.65250145111E-04  1.73722701227E-04  1.82629654585E-04  1.91993277206E-04
  2.01836983025E-04  2.12185386434E-04  2.23064363831E-04  2.34501118327E-04
  2.46524247766E-04  2.59163816232E-04  2.72451429231E-04  2.86420312717E-04
  3.01105396174E-04  3.16543399961E-04  3.32772927127E-04  3.49834559945E-04
  3.67770961384E-04  3.86626981789E-04  4.06449771034E-04  4.27288896417E-04
  4.49196466606E-04  4.72227261937E-04  4.96438871395E-04  5.21891836615E-04
  5.48649803268E-04  5.76779680208E-04  6.06351806780E-04  6.37440128703E-04
  6.70122382976E-04  7.04480292257E-04  7.40599769216E-04  7.78571131360E-04
  8.18489326871E-04  8.60454172032E-04  9.04570600813E-04  9.50948927267E-04
  9.99705121365E-04  1.05096109899E-03  1.10484502678E-03  1.16149164263E-03
  1.22104259258E-03  1.28364678503E-03  1.34946076305E-03  1.41864909589E-03
  1.49138479041E-03  1.56784972373E-03  1.64823509802E-03  1.73274191858E-03
  1.82158149649E-03  1.91497597695E-03  2.01315889482E-03  2.11637575854E-03
  2.22488466402E-03  2.33895694006E-03  2.45887782675E-03  2.58494718878E-03
  2.71748026522E-03  2.85680845780E-03  3.00328015957E-03  3.15726162608E-03
  3.31913789119E-03  3.48931372990E-03  3.66821467043E-03  3.85628805832E-03
  4.05400417501E-03  4.26185741378E-03  4.48036751598E-03  4.71008087070E-03
  4.95157188096E-03  5.20544440008E-03  5.47233324159E-03  5.75290576662E-03
  6.04786355263E-03  6.35794414770E-03  6.68392291485E-03  7.02661497079E-03
  7.38687722416E-03  7.76561051823E-03  8.16376188353E-03  8.58232690585E-03
  9.02235221577E-03  9.48493810577E-03  9.97124128151E-03  1.04824777542E-02
  1.10199258814E-02  1.15849295634E-02  1.21789016035E-02  1.28033272414E-02
  1.34597678663E-02  1.41498649218E-02  1.48753440099E-02  1.56380192063E-02
  1.64397975961E-02  1.72826840431E-02  1.81687862023E-02  1.91003197907E-02
  2.00796141275E-02  2.11091179586E-02  2.21914055799E-02  2.33291832741E-02
  2.45252960781E-02  2.57827348970E-02  2.71046439827E-02  2.84943287966E-02
  2.99552642745E-02  3.14911035161E-02  3.31056869194E-02  3.48030517841E-02
  3.65874424063E-02  3.84633206920E-02  4.04353773142E-02  4.25085434415E-02
  4.46880030690E-02  4.69792059812E-02  4.93878813788E-02  5.19200522048E-02
  5.45820502052E-02  5.73805317617E-02  6.03224945357E-02  6.34152949667E-02
  6.66666666667E-02  7.00847397584E-02  7.36780612050E-02  7.74556161819E-02
  8.14268505440E-02  8.56016944458E-02  8.99905871717E-02  9.46045032396E-02
  9.94549798428E-02  1.04554145699E-01  1.09914751380E-01  1.15550201191E-01
  1.21474586693E-01  1.27702721934E-01  1.34250180498E-01  1.41133334441E-01
  1.48369395233E-01  1.55976456795E-01  1.63973540744E-01  1.72380643954E-01
  1.81218788564E-01  1.90510074538E-01  2.00277734930E-01  2.10546193979E-01
  2.21341128182E-01  2.32689530497E-01  2.44619777841E-01  2.57161702046E-01
  2.70346664456E-01  2.84207634345E-01  2.98779271356E-01  3.14098012173E-01
  3.30202161626E-01  3.47131988479E-01  3.64929826115E-01  3.83640178400E-01
  4.03309830961E-01  4.23987968173E-01  4.45726296152E-01  4.68579172039E-01
  4.92603739929E-01  5.17860073754E-01  5.44411327505E-01  5.72323893145E-01
  6.01667566629E-01  6.32515722424E-01  6.64945496988E-01  6.99037981649E-01
  7.34878425376E-01  7.72556447948E-01  8.12166264047E-01  8.53806918844E-01
  8.97582535667E-01  9.43602576358E-01  9.91982114992E-01  1.04284212561E+00
  1.09630978474E+00  1.15251878937E+00  1.21160969130E+00  1.27373024855E+00
  1.33903579488E+00  1.40768962817E+00  1.47986341876E+00  1.55573763873E+00
  1.63550201314E+00  1.71935599448E+00  1.80750926138E+00  1.90018224292E+00
  1.99760666983E+00  2.10002615392E+00  2.20769679725E+00  2.32088783251E+00
  2.43988229625E+00  2.56497773660E+00  2.69648695734E+00  2.83473880000E+00
  2.98007896622E+00  3.13287088211E+00  3.29349660704E+00  3.46235778899E+00
  3.63987666888E+00  3.82649713636E+00  4.02268583982E+00  4.22893335321E+00
  4.44575540273E+00  4.67369415645E+00  4.91331957997E+00  5.16523086168E+00
  5.43005791100E+00  5.70846293348E+00  6.00114208670E+00  6.30882722099E+00
  6.63228770946E+00  6.97233237181E+00  7.32981149681E+00  7.70561896848E+00
  8.10069450125E+00  8.51602598974E+00  8.95265197900E+00  9.41166426143E+00
  9.89421060684E+00  1.04014976324E+01  1.09347938200E+01  1.14954326878E+01
  1.20848161250E+01  1.27044178972E+01  1.33557873317E+01  1.40405531911E+01
  1.47604277469E+01  1.55172110605E+01  1.63127954843E+01  1.71491703937E+01
  1.80284271617E+01  1.89527643883E+01  1.99244933978E+01  2.09460440190E+01
  2.20199706606E+01  2.31489586986E+01  2.43358311910E+01  2.55835559374E+01
  2.68952528995E+01  2.82742020030E+01  2.97238513388E+01  3.12478257855E+01
  3.28499360729E+01  3.45341883112E+01  3.63047940084E+01  3.81661806009E+01
  4.01230025248E+01  4.21801528542E+01  4.43427755363E+01  4.66162782544E+01
  4.90063459495E+01  5.15189550357E+01  5.41603883445E+01  5.69372508351E+01
  5.98564861100E+01
  </PP_R>
  <PP_RAB>
  1.11820875968E-06  1.17554054876E-06  1.23581180153E-06  1.29917322751E-06
  1.36578326327E-06  1.43580846859E-06  1.50942394296E-06  1.58681376341E-06
  1.66817144480E-06  1.75370042372E-06  1.84361456716E-06  1.93813870731E-06
  2.03750920377E-06  2.14197453452E-06  2.25179591731E-06  2.36724796281E-06
  2.48861936126E-06  2.61621360437E-06  2.75034974422E-06  2.89136319102E-06
  3.03960655185E-06  3.19545051231E-06  3.35928476350E-06  3.53151897636E-06
  3.71258382615E-06  3.90293206930E-06  4.10303967558E-06  4.31340701822E-06
  4.53456012516E-06  4.76705199436E-06  5.01146397659E-06  5.26840722912E-06
  5.53852424391E-06  5.82249045420E-06  6.12101592343E-06  6.43484712076E-06
  6.76476878765E-06  7.11160590013E-06  7.47622573162E-06  7.85954002163E-06
  8.26250725555E-06  8.68613506136E-06  9.13148272923E-06  9.59966386029E-06
  1.00918491513E-05  1.06092693217E-05  1.11532181916E-05  1.17250559164E-05
  1.23262123883E-05  1.29581908116E-05  1.36225714615E-05  1.43210156358E-05
  1.50552698087E-05  1.58271699980E-05  1.66386463564E-05  1.74917279973E-05
  1.83885480692E-05  1.93313490895E-05  2.03224885517E-05  2.13644448209E-05
  2.24598233303E-05  2.36113630968E-05  2.48219435697E-05  2.60945918308E-05
  2.74324901634E-05  2.88389840104E-05  3.03175903390E-05  3.18720064351E-05
  3.35061191488E-05  3.52240146128E-05  3.70299884608E-05  3.89285565680E-05
  4.09244663436E-05  4.30227086016E-05  4.52285300407E-05  4.75474463633E-05
  4.99852560683E-05  5.25480549495E-05  5.52422513392E-05  5.80745821316E-05
  6.10521296291E-05  6.41823392513E-05  6.74730381527E-05  7.09324547946E-05
  7.45692395206E-05  7.83924861867E-05  8.24117549011E-05  8.66370959292E-05
  9.10790748243E-05  9.57487988475E-05  1.00657944741E-04  1.05818787927E-04
  1.11244233201E-04  1.16947847003E-04  1.22943891337E-04  1.29247359439E-04
  1.35874013261E-04  1.42840422890E-04  1.50164007979E-04  1.57863081304E-04
  1.65956894560E-04  1.74465686495E-04  1.83410733521E-04  1.92814402916E-04
  2.02700208751E-04  2.13092870689E-04  2.24018375799E-04  2.35504043535E-04
  2.47578594048E-04  2.60272220004E-04  2.73616662080E-04  2.87645288331E-04
  3.02393177631E-04  3.17897207385E-04  3.34196145743E-04  3.51330748540E-04
  3.69343861208E-04  3.88280525912E-04  4.08188094177E-04  4.29116345293E-04
  4.51117610789E-04  4.74246905288E-04  4.98562064075E-04  5.24123887712E-04
  5.50996294072E-04  5.79246478168E-04  6.08945080176E-04  6.40166362069E-04
  6.72988393316E-04  7.07493246089E-04  7.43767200495E-04  7.81900960313E-04
  8.21989879805E-04  8.64134202153E-04  9.08439310113E-04  9.55015989534E-04
  1.00398070637E-03  1.05545589793E-03  1.10957027899E-03  1.16645916370E-03
  1.22626480390E-03  1.28913674485E-03  1.35523219914E-03  1.42471643983E-03
  1.49776321372E-03  1.57455517580E-03  1.65528434597E-03  1.74015258920E-03
  1.82937212031E-03  1.92316603460E-03  2.02176886571E-03  2.12542717207E-03
  2.23440015345E-03  2.34896029906E-03  2.46939406894E-03  2.59600261024E-03
  2.72910251026E-03  2.86902658808E-03  3.01612472679E-03  3.17076474834E-03
  3.33333333333E-03  3.50423698792E-03  3.68390306025E-03  3.87278080909E-03
  4.07134252720E-03  4.28008472229E-03  4.49952935859E-03  4.73022516198E-03
  4.97274899214E-03  5.22770728497E-03  5.49573756900E-03  5.77751005956E-03
  6.07372933464E-03  6.38513609671E-03  6.71250902490E-03  7.05666672204E-03
  7.41846976164E-03  7.79882283975E-03  8.19867703719E-03  8.61903219772E-03
  9.06093942820E-03  9.52550372688E-03  1.00138867465E-02  1.05273096990E-02
  1.10670564091E-02  1.16344765249E-02  1.22309888921E-02  1.28580851023E-02
  1.35173332228E-02  1.42103817172E-02  1.49389635678E-02  1.57049006086E-02
  1.65101080813E-02  1.73565994239E-02  1.82464913058E-02  1.91820089200E-02
  2.01654915480E-02  2.11993984087E-02  2.22863148076E-02  2.34289586020E-02
  2.46301869964E-02  2.58930036877E-02  2.72205663752E-02  2.86161946573E-02
  3.00833783314E-02  3.16257861212E-02  3.32472748494E-02  3.49518990824E-02
  3.67439212688E-02  3.86278223974E-02  4.06083132023E-02  4.26903459422E-02
  4.48791267833E-02  4.71801288179E-02  4.95991057496E-02  5.21421062806E-02
  5.48154892370E-02  5.76259394686E-02  6.05804845648E-02  6.36865124274E-02
  6.69517897440E-02  7.03844814085E-02  7.39931709381E-02  7.77868819365E-02
  8.17751006570E-02  8.59677997240E-02  9.03754630689E-02  9.50091121459E-02
  9.98803334913E-02  1.05001307696E-01  1.10384839862E-01  1.16044391625E-01
  1.21994114812E-01  1.28248886830E-01  1.34824347867E-01  1.41736940000E-01
  1.49003948311E-01  1.56643544105E-01  1.64674830352E-01  1.73117889449E-01
  1.81993833444E-01  1.91324856818E-01  2.01134291991E-01  2.11446667660E-01
  2.22287770136E-01  2.33684707822E-01  2.45665978999E-01  2.58261543084E-01
  2.71502895550E-01  2.85423146674E-01  3.00057104335E-01  3.15441361050E-01
  3.31614385473E-01  3.48616618590E-01  3.66490574840E-01  3.85280948424E-01
  4.05034725062E-01  4.25801299487E-01  4.47632598950E-01  4.70583213072E-01
  4.94710530342E-01  5.20074881621E-01  5.46739691000E-01  5.74771634390E-01
  6.04240806251E-01  6.35220894862E-01  6.67789366583E-01  7.02027659556E-01
  7.38021387347E-01  7.75860553026E-01  8.15639774214E-01  8.57458519686E-01
  9.01421358087E-01  9.47638219413E-01  9.96224669890E-01  1.04730220095E+00
  1.10099853303E+00  1.15744793493E+00  1.21679155955E+00  1.27917779687E+00
  1.34476264498E+00  1.41371010015E+00  1.48619256694E+00  1.56239128927E+00
  1.64249680364E+00  1.72670941556E+00  1.81523970042E+00  1.90830903005E+00
  2.00615012624E+00  2.10900764271E+00  2.21713877681E+00  2.33081391272E+00
  2.45031729747E+00  2.57594775178E+00  2.70801941723E+00  2.84686254175E+00
  2.99282430550E+00
  </PP_RAB>
</PP_MESH>


<PP_LOCAL>
 -1.22257460000E+01 -1.22257510000E+01 -1.22257570000E+01 -1.22257740000E+01
 -1.22257780000E+01 -1.22257670000E+01 -1.22257610000E+01 -1.22257630000E+01
 -1.22257700000E+01 -1.22257710000E+01 -1.22257670000E+01 -1.22257630000E+01
 -1.22257610000E+01 -1.22257650000E+01 -1.22257630000E+01 -1.22257610000E+01
 -1.22257620000E+01 -1.22257600000E+01 -1.22257600000E+01 -1.22257560000E+01
 -1.22257530000E+01 -1.22257550000E+01 -1.22257530000E+01 -1.22257490000E+01
 -1.22257480000E+01 -1.22257460000E+01 -1.22257420000E+01 -1.22257390000E+01
 -1.22257360000E+01 -1.22257330000E+01 -1.22257290000E+01 -1.22257240000E+01
 -1.22257190000E+01 -1.22257130000E+01 -1.22257080000E+01 -1.22257010000E+01
 -1.22256930000E+01 -1.22256850000E+01 -1.22256760000E+01 -1.22256660000E+01
 -1.22256550000E+01 -1.22256430000E+01 -1.22256290000E+01 -1.22256140000E+01
 -1.22255970000E+01 -1.22255790000E+01 -1.22255590000E+01 -1.22255370000E+01
 -1.22255120000E+01 -1.22254850000E+01 -1.22254540000E+01 -1.22254210000E+01
 -1.22253840000E+01 -1.22253430000E+01 -1.22252980000E+01 -1.22252490000E+01
 -1.22251940000E+01 -1.22251330000E+01 -1.22250660000E+01 -1.22249920000E+01
 -1.22249100000E+01 -1.22248190000E+01 -1.22247190000E+01 -1.22246090000E+01
 -1.22244870000E+01 -1.22243520000E+01 -1.22242020000E+01 -1.22240380000E+01
 -1.22238560000E+01 -1.22236550000E+01 -1.22234320000E+01 -1.22231870000E+01
 -1.22229160000E+01 -1.22226170000E+01 -1.22222860000E+01 -1.22219210000E+01
 -1.22215170000E+01 -1.22210720000E+01 -1.22205800000E+01 -1.22200370000E+01
 -1.22194370000E+01 -1.22187750000E+01 -1.22180450000E+01 -1.22172380000E+01
 -1.22163490000E+01 -1.22153670000E+01 -1.22142840000E+01 -1.22130900000E+01
 -1.22117740000E+01 -1.22103220000E+01 -1.22087230000E+01 -1.22069600000E+01
 -1.22050190000E+01 -1.22028810000E+01 -1.22005290000E+01 -1.21979400000E+01
 -1.21950930000E+01 -1.21919630000E+01 -1.21885250000E+01 -1.21847480000E+01
 -1.21806040000E+01 -1.21760580000E+01 -1.21710760000E+01 -1.21656190000E+01
 -1.21596470000E+01 -1.21531160000E+01 -1.21459810000E+01 -1.21381920000E+01
 -1.21296990000E+01 -1.21204470000E+01 -1.21103800000E+01 -1.20994370000E+01
 -1.20875570000E+01 -1.20746760000E+01 -1.20607260000E+01 -1.20456380000E+01
 -1.20293420000E+01 -1.20117640000E+01 -1.19928290000E+01 -1.19724610000E+01
 -1.19505830000E+01 -1.19271170000E+01 -1.19019810000E+01 -1.18750970000E+01
 -1.18463850000E+01 -1.18157650000E+01 -1.17831560000E+01 -1.17484830000E+01
 -1.17116670000E+01 -1.16726350000E+01 -1.16313160000E+01 -1.15876440000E+01
 -1.15415560000E+01 -1.14929970000E+01 -1.14419170000E+01 -1.13882770000E+01
 -1.13320440000E+01 -1.12731970000E+01 -1.12117290000E+01 -1.11476450000E+01
 -1.10809630000E+01 -1.10117190000E+01 -1.09399670000E+01 -1.08657760000E+01
 -1.07892380000E+01 -1.07104640000E+01 -1.06295840000E+01 -1.05467500000E+01
 -1.04621350000E+01 -1.03759340000E+01 -1.02883600000E+01 -1.01996460000E+01
 -1.01100420000E+01 -1.00198130000E+01 -9.92923910000E+00 -9.83861040000E+00
 -9.74822510000E+00 -9.65838600000E+00 -9.56939750000E+00 -9.48156190000E+00
 -9.39517600000E+00 -9.31052730000E+00 -9.22789080000E+00 -9.14752560000E+00
 -9.06967200000E+00 -8.99454880000E+00 -8.92235140000E+00 -8.85324930000E+00
 -8.78738540000E+00 -8.72487440000E+00 -8.66580260000E+00 -8.61022760000E+00
 -8.55817820000E+00 -8.50965500000E+00 -8.46463060000E+00 -8.42305090000E+00
 -8.38483520000E+00 -8.34987740000E+00 -8.31804690000E+00 -8.28918970000E+00
 -8.26312920000E+00 -8.23966740000E+00 -8.21858670000E+00 -8.19965100000E+00
 -8.18260780000E+00 -8.16719080000E+00 -8.15312180000E+00 -8.14011470000E+00
 -8.12787830000E+00 -8.11612020000E+00 -8.10455130000E+00 -8.09288910000E+00
 -8.08086300000E+00 -8.06821750000E+00 -8.05471680000E+00 -8.04014790000E+00
 -8.02432400000E+00 -8.00708650000E+00 -7.98830730000E+00 -7.96788890000E+00
 -7.94576420000E+00 -7.92189480000E+00 -7.89626710000E+00 -7.86888630000E+00
 -7.83976810000E+00 -7.80892640000E+00 -7.77635740000E+00 -7.74201980000E+00
 -7.70581030000E+00 -7.66753430000E+00 -7.62687570000E+00 -7.58336760000E+00
 -7.53637320000E+00 -7.48509140000E+00 -7.42860860000E+00 -7.36603290000E+00
 -7.29681240000E+00 -7.22187250000E+00 -7.14563080000E+00 -7.06812790000E+00
 -6.97294710000E+00 -6.83725710000E+00 -6.64601530000E+00 -6.39560690000E+00
 -6.10341340000E+00 -5.81077120000E+00 -5.53003250000E+00 -5.26164430000E+00
 -5.00564670000E+00 -4.76178580000E+00 -4.52965200000E+00 -4.30876530000E+00
 -4.09862150000E+00 -3.89871720000E+00 -3.70856180000E+00 -3.52768280000E+00
 -3.35562820000E+00 -3.19196750000E+00 -3.03629040000E+00 -2.88820710000E+00
 -2.74734670000E+00 -2.61335650000E+00 -2.48590140000E+00 -2.36466250000E+00
 -2.24933650000E+00 -2.13963500000E+00 -2.03528380000E+00 -1.93602180000E+00
 -1.84160090000E+00 -1.75178500000E+00 -1.66634940000E+00 -1.58508060000E+00
 -1.50777530000E+00 -1.43424020000E+00 -1.36429150000E+00 -1.29775430000E+00
 -1.23446200000E+00 -1.17425660000E+00 -1.11698740000E+00 -1.06251130000E+00
 -1.01069200000E+00 -9.61399990000E-01 -9.14511960000E-01 -8.69910690000E-01
 -8.27484640000E-01 -7.87127740000E-01 -7.48739070000E-01 -7.12222640000E-01
 -6.77487120000E-01 -6.44445690000E-01 -6.13015700000E-01 -5.83118570000E-01
 -5.54679550000E-01 -5.27627510000E-01 -5.01894810000E-01 -4.77417110000E-01
 -4.54133200000E-01 -4.31984860000E-01 -4.10916710000E-01 -3.90876070000E-01
 -3.71812820000E-01 -3.53679290000E-01 -3.36430150000E-01 -3.20022260000E-01
 -3.04414590000E-01 -2.89568110000E-01 -2.75445710000E-01 -2.62012060000E-01
 -2.49233580000E-01 -2.37078320000E-01 -2.25515870000E-01 -2.14517330000E-01
 -2.04055200000E-01 -1.94103310000E-01 -1.84636780000E-01 -1.75631940000E-01
 -1.67066270000E-01
</PP_LOCAL>


<PP_NONLOCAL>
  <PP_BETA>
    1    0             Beta    L
   262
  5.37046952046E-05  5.64581943020E-05  5.93528634497E-05  6.23959519345E-05
  6.55950631697E-05  6.89581876193E-05  7.24937548386E-05  7.62105904135E-05
  8.01179887428E-05  8.42257237309E-05  8.85440673489E-05  9.30838285836E-05
  9.78563239259E-05  1.02873532081E-04  1.08147966760E-04  1.13692831006E-04
  1.19521995466E-04  1.25650010417E-04  1.32092220224E-04  1.38864738784E-04
  1.45984483318E-04  1.53469269302E-04  1.61337808019E-04  1.69609784264E-04
  1.78305866807E-04  1.87447790201E-04  1.97058441798E-04  2.07161855145E-04
  2.17783253279E-04  2.28949257838E-04  2.40687738569E-04  2.53028053007E-04
  2.66001090884E-04  2.79639234201E-04  2.93976680720E-04  3.09049188982E-04
  3.24894459848E-04  3.41552143499E-04  3.59063919808E-04  3.77473528053E-04
  3.96826993167E-04  4.17172773422E-04  4.38561662214E-04  4.61047196783E-04
  4.84685562976E-04  5.09535950550E-04  5.35660424767E-04  5.63124358188E-04
  5.91996346185E-04  6.22348668404E-04  6.54257108410E-04  6.87801626472E-04
  7.23065966133E-04  7.60138326872E-04  7.99111475292E-04  8.40082895409E-04
  8.83154828126E-04  9.28435169329E-04  9.76037088324E-04  1.02607956620E-03
  1.07868783738E-03  1.13399325448E-03  1.19213436644E-03  1.25325658720E-03
  1.31751243096E-03  1.38506281970E-03  1.45607632887E-03  1.53073119131E-03
  1.60921356339E-03  1.69171980867E-03  1.77845599834E-03  1.86963955727E-03
  1.96549818619E-03  2.06627170229E-03  2.17221185982E-03  2.28358378636E-03
  2.40066567929E-03  2.52375081993E-03  2.65314660058E-03  2.78917666311E-03
  2.93218106692E-03  3.08251764096E-03  3.24056255271E-03  3.40670999005E-03
  3.58137680135E-03  3.76499852071E-03  3.95803493959E-03  4.16096897080E-03
  4.37430805806E-03  4.59858489495E-03  4.83436149710E-03  5.08222625755E-03
  5.34280022557E-03  5.61673387371E-03  5.90471380671E-03  6.20745852931E-03
  6.52572623362E-03  6.86031219275E-03  7.21205460125E-03  7.58183075810E-03
  7.97056820108E-03  8.37923660514E-03  8.80886090515E-03  9.26051339098E-03
  9.73532493679E-03  1.02344828351E-02  1.07592366813E-02  1.13108969717E-02
  1.18908460714E-02  1.25005338878E-02  1.31414865292E-02  1.38153061955E-02
  1.45236807236E-02  1.52683835806E-02  1.60512767367E-02  1.68743188686E-02
  1.77395733739E-02  1.86492049091E-02  1.96054900738E-02  2.06108238136E-02
  2.16677252543E-02  2.27788449101E-02  2.39469584061E-02  2.51749996103E-02
  2.64660453087E-02  2.78233348189E-02  2.92502637429E-02  3.07504247008E-02
  3.23275713460E-02  3.39856673705E-02  3.57288766544E-02  3.75615809625E-02
  3.94883850254E-02  4.15141399821E-02  4.36439379141E-02  4.58831548271E-02
  4.82374241828E-02  5.07126833533E-02  5.33151914603E-02  5.60515291497E-02
  5.89286084432E-02  6.19537242443E-02  6.51345585278E-02  6.84791775901E-02
  7.19961062007E-02  7.56943172585E-02  7.95832521483E-02  8.36728593708E-02
  8.79736351683E-02  9.24966638642E-02  9.72536226257E-02  1.02256815831E-01
  1.07519251239E-01  1.13054645054E-01  1.18877513031E-01  1.25003176220E-01
  1.31447842354E-01  1.38228651470E-01  1.45363747211E-01  1.52872358012E-01
  1.60774861243E-01  1.69092862383E-01  1.77849293788E-01  1.87068542885E-01
  1.96776513314E-01  2.07000783714E-01  2.17770744834E-01  2.29117709105E-01
  2.41075143411E-01  2.53678771536E-01  2.66966832589E-01  2.80980277375E-01
  2.95762983719E-01  3.11362075567E-01  3.27828127079E-01  3.45215546197E-01
  3.63582863518E-01  3.82993092081E-01  4.03514065774E-01  4.25218874633E-01
  4.48186192185E-01  4.72500642667E-01  4.98253168197E-01  5.25541236331E-01
  5.54469003794E-01  5.85147294299E-01  6.17693287816E-01  6.52229884392E-01
  6.88884495730E-01  7.27787072098E-01  7.69067218458E-01  8.12849724801E-01
  8.59248452214E-01  9.08357203938E-01  9.60238109401E-01  1.01490429453E+00
  1.07229789735E+00  1.13225983640E+00  1.19449047735E+00  1.25849824445E+00
  1.32353435627E+00  1.38851076530E+00  1.45190114230E+00  1.51162412333E+00
  1.56491549983E+00  1.60819975847E+00  1.63698542431E+00  1.64582441576E+00
  1.62839985816E+00  1.57783360039E+00  1.48733225271E+00  1.35129636895E+00
  1.16698020399E+00  9.36660849457E-01  6.70011876290E-01  3.85965081211E-01
  1.12856097695E-01 -1.14654412356E-01 -2.63074293276E-01 -3.11721284099E-01
 -2.65447527095E-01 -1.61689843500E-01 -6.13212375396E-02 -9.46671504213E-03
  0.00000000000E+00  0.00000000000E+00  0.00000000000E+00  0.00000000000E+00
  0.00000000000E+00  0.00000000000E+00  0.00000000000E+00  0.00000000000E+00
  0.00000000000E+00  0.00000000000E+00  0.00000000000E+00  0.00000000000E+00
  0.00000000000E+00  0.00000000000E+00  0.00000000000E+00  0.00000000000E+00
  0.00000000000E+00  0.00000000000E+00  0.00000000000E+00  0.00000000000E+00
  0.00000000000E+00  0.00000000000E+00  0.00000000000E+00  0.00000000000E+00
  0.00000000000E+00  0.00000000000E+00  0.00000000000E+00  0.00000000000E+00
  0.00000000000E+00  0.00000000000E+00  0.00000000000E+00  0.00000000000E+00
  0.00000000000E+00  0.00000000000E+00  0.00000000000E+00  0.00000000000E+00
  0.00000000000E+00  0.00000000000E+00
  </PP_BETA>
  <PP_BETA>
    2    2             Beta    L
   262
 -1.86637654234E-14 -2.16842018700E-14 -2.51934538709E-14 -2.92706106826E-14
 -3.40075976507E-14 -3.95112009237E-14 -4.59054570058E-14 -5.33345307034E-14
 -6.19658835977E-14 -7.19940858207E-14 -8.36452141964E-14 -9.71818512421E-14
 -1.12909227384E-13 -1.31181773977E-13 -1.52411514173E-13 -1.77076916153E-13
 -2.05733977160E-13 -2.39028836023E-13 -2.77711887260E-13 -3.22655180314E-13
 -3.74871836310E-13 -4.35538917076E-13 -5.06024059657E-13 -5.87915935437E-13
 -6.83060838230E-13 -7.93603677096E-13 -9.22035938926E-13 -1.07125291454E-12
 -1.24461830003E-12 -1.44603984700E-12 -1.68005860187E-12 -1.95195006771E-12
 -2.26784190638E-12 -2.63485698463E-12 -3.06126636373E-12 -3.55668407879E-12
 -4.13227738364E-12 -4.80102225256E-12 -5.57799096116E-12 -6.48070104849E-12
 -7.52950013626E-12 -8.74803127940E-12 -1.01637622084E-11 -1.18086071044E-11
 -1.37196468653E-11 -1.59399558074E-11 -1.85195820447E-11 -2.15166843742E-11
 -2.49988207300E-11 -2.90444860026E-11 -3.37448857154E-11 -3.92059547922E-11
 -4.55508303605E-11 -5.29225161280E-11 -6.14871915700E-11 -7.14379068497E-11
 -8.29990036746E-11 -9.64311070630E-11 -1.12036935257E-10 -1.30168345448E-10
 -1.51234040477E-10 -1.75708923809E-10 -2.04144641290E-10 -2.37182177935E-10
 -2.75566373867E-10 -3.20162441696E-10 -3.71975767227E-10 -4.32174076987E-10
 -5.02114645242E-10 -5.83373943661E-10 -6.77783964974E-10 -7.87472582561E-10
 -9.14912392497E-10 -1.06297651484E-09 -1.23500246563E-09 -1.43486804210E-09
 -1.66707913751E-09 -1.93686907796E-09 -2.25032067211E-09 -2.61449941420E-09
 -3.03761543067E-09 -3.52920529060E-09 -4.10035024700E-09 -4.76392804739E-09
 -5.53489262623E-09 -6.43062861689E-09 -7.47132320302E-09 -8.68043787279E-09
 -1.00852257219E-08 -1.17173609447E-08 -1.36136251833E-08 -1.58167758354E-08
 -1.83764670743E-08 -2.13504023573E-08 -2.48056150372E-08 -2.88200092872E-08
 -3.34840607213E-08 -3.89029114204E-08 -4.51987044539E-08 -5.25133836401E-08
 -6.10118129306E-08 -7.08855658809E-08 -8.23572207207E-08 -9.56853666528E-08
 -1.11170410318E-07 -1.29161463972E-07 -1.50064054593E-07 -1.74349393676E-07
 -2.02564782629E-07 -2.35346418320E-07 -2.73433030769E-07 -3.17683373931E-07
 -3.69094707411E-07 -4.28825850204E-07 -4.98223372593E-07 -5.78851583654E-07
 -6.72527533591E-07 -7.81363015668E-07 -9.07811070139E-07 -1.05472214046E-06
 -1.22540700276E-06 -1.42371270231E-06 -1.65410981443E-06 -1.92179023879E-06
 -2.23278734432E-06 -2.59410973827E-06 -3.01390256680E-06 -3.50162395951E-06
 -4.06826755825E-06 -4.72660223954E-06 -5.49146412218E-06 -6.38008829386E-06
 -7.41249894806E-06 -8.61195870861E-06 -1.00054960898E-05 -1.16245005604E-05
 -1.35054540691E-05 -1.56907286094E-05 -1.82295501431E-05 -2.11791046538E-05
 -2.46058189149E-05 -2.85868828768E-05 -3.32119183852E-05 -3.85850841004E-05
 -4.48273405139E-05 -5.20791880961E-05 -6.05038737679E-05 -7.02909408064E-05
 -8.16606313307E-05 -9.48686560475E-05 -1.10212077776E-04 -1.28035873620E-04
 -1.48740646744E-04 -1.72791682994E-04 -2.00729244401E-04 -2.33180667574E-04
 -2.70874271496E-04 -3.14655798370E-04 -3.65506988526E-04 -4.24567383498E-04
 -4.93159909793E-04 -5.72819649434E-04 -6.65328333680E-04 -7.72752926862E-04
 -8.97491758060E-04 -1.04232679333E-03 -1.21048428349E-03 -1.40570489154E-03
 -1.63232573420E-03 -1.89537308558E-03 -2.20067057613E-03 -2.55496439427E-03
 -2.96606585018E-03 -3.44301615422E-03 -3.99627738003E-03 -4.63794634750E-03
 -5.38200417349E-03 -6.24460379415E-03 -7.24438810864E-03 -8.40286097719E-03
 -9.74480195929E-03 -1.12987418861E-02 -1.30974821871E-02 -1.51786978178E-02
 -1.75855931947E-02 -2.03676221968E-02 -2.35812795984E-02 -2.72909656112E-02
 -3.15698960168E-02 -3.65010328630E-02 -4.21780328979E-02 -4.87062035316E-02
 -5.62033102090E-02 -6.48002052739E-02 -7.46412087941E-02 -8.58840430789E-02
 -9.86989394923E-02 -1.13267082901E-01 -1.29777401468E-01 -1.48421809289E-01
 -1.69387996257E-01 -1.92849159999E-01 -2.18949878750E-01 -2.47787196405E-01
 -2.79386103863E-01 -3.13668328200E-01 -3.50414056644E-01 -3.89217038032E-01
 -4.29433208562E-01 -4.70127370542E-01 -5.10022113113E-01 -5.47458861187E-01
 -5.80384968912E-01 -6.06387186353E-01 -6.22792943126E-01 -6.26871780536E-01
 -6.16157562667E-01 -5.88908082387E-01 -5.44680583436E-01 -4.84951327415E-01
 -4.13607426617E-01 -3.36998908331E-01 -2.63034680350E-01 -1.98513047893E-01
 -1.43415000524E-01 -8.76734121863E-02 -3.25629472573E-02  1.55178405290E-02
  5.05409609030E-02  6.80113672746E-02  6.63943727701E-02  4.87383879326E-02
  2.38312902539E-02  4.74501710975E-03  0.00000000000E+00  0.00000000000E+00
  0.00000000000E+00  0.00000000000E+00  0.00000000000E+00  0.00000000000E+00
  0.00000000000E+00  0.00000000000E+00  0.00000000000E+00  0.00000000000E+00
  0.00000000000E+00  0.00000000000E+00  0.00000000000E+00  0.00000000000E+00
  0.00000000000E+00  0.00000000000E+00  0.00000000000E+00  0.00000000000E+00
  0.00000000000E+00  0.00000000000E+00  0.00000000000E+00  0.00000000000E+00
  0.00000000000E+00  0.00000000000E+00  0.00000000000E+00  0.00000000000E+00
  0.00000000000E+00  0.00000000000E+00
  </PP_BETA>
  <PP_DIJ>
    2                  Number of nonzero Dij
    1    1  4.07944771887E+00
    2    2 -9.51877563830E+00
  </PP_DIJ>
</PP_NONLOCAL>


<PP_PSWFC>
3S    0  1.50          Wavefunction
  6.84333010000E-06  7.19419520000E-06  7.56304940000E-06  7.95081530000E-06
  8.35846230000E-06  8.78700980000E-06  9.23752940000E-06  9.71114770000E-06
  1.02090490000E-05  1.07324780000E-05  1.12827440000E-05  1.18612230000E-05
  1.24693600000E-05  1.31086780000E-05  1.37807750000E-05  1.44873300000E-05
  1.52301110000E-05  1.60109760000E-05  1.68318760000E-05  1.76948650000E-05
  1.86021000000E-05  1.95558500000E-05  2.05585000000E-05  2.16125570000E-05
  2.27206560000E-05  2.38855690000E-05  2.51102090000E-05  2.63976370000E-05
  2.77510720000E-05  2.91739000000E-05  3.06696780000E-05  3.22421460000E-05
  3.38952360000E-05  3.56330820000E-05  3.74600300000E-05  3.93806460000E-05
  4.13997350000E-05  4.35223450000E-05  4.57537840000E-05  4.80996310000E-05
  5.05657510000E-05  5.31583130000E-05  5.58837980000E-05  5.87490220000E-05
  6.17611490000E-05  6.49277110000E-05  6.82566260000E-05  7.17562190000E-05
  7.54352390000E-05  7.93028870000E-05  8.33688340000E-05  8.76432460000E-05