<PP_INFO>
Generated using Vanderbilt code, version   7  3  5                              
Author: G. Mattioli    Generation date:   13    5 2005 
PBE, US, rinner=1.0, rcloc=2.3, rc=2.5 2.5 2.3
    1        The Pseudo was generated with a Scalar-Relativistic Calculation
  2.30000000000E+00    Local Potential cutoff radius
nl pn  l   occ               Rcut            Rcut US             E pseu
5D  5  2 10.00     10.00000000000      2.30000000000     -1.55650775373
6S  6  0  2.00     10.00000000000      2.50000000000     -0.88492884217
6P  6  1  2.00     10.00000000000      2.50000000000     -0.25708023879
</PP_INFO>


<PP_HEADER>
   0                   Version Number
   P                   Element
   US                  Ultrasoft pseudopotential
    F                  Nonlinear Core Correction
 SLA  PW   PBE  PBE    PBE  Exchange-Correlation functional
   14.00000000000      Z valence
 -119.99193506979      Total energy
  0.0000000  0.0000000 Suggested cutoff for wfc and rho
    2                  Max angular momentum component
  899                  Number of points in mesh
    3    6             Number of Wavefunctions, Number of Projectors
 Wavefunctions         nl  l   occ
                       5D  2 10.00
                       6S  0  2.00
                       6P  1  2.00
</PP_HEADER>


<PP_MESH>
  <PP_R>
  0.00000000000E+00  6.97811114178E-10  1.41328740082E-09  2.14687605588E-09
  2.89903559617E-09  3.67023614587E-09  4.46095973043E-09  5.27170057784E-09
  6.10296542751E-09  6.95527384705E-09  7.82915855694E-09  8.72516576360E-09
  9.64385550068E-09  1.05858019792E-08  1.15515939463E-08  1.25418350535E-08
  1.35571442336E-08  1.45981560881E-08  1.56655212830E-08  1.67599069566E-08
  1.78819971353E-08  1.90324931622E-08  2.02121141347E-08  2.14215973542E-08
  2.26616987873E-08  2.39331935375E-08  2.52368763306E-08  2.65735620108E-08
  2.79440860500E-08  2.93493050705E-08  3.07900973799E-08  3.22673635202E-08
  3.37820268309E-08  3.53350340258E-08  3.69273557851E-08  3.85599873616E-08
  4.02339492033E-08  4.19502875907E-08  4.37100752913E-08  4.55144122296E-08
  4.73644261750E-08  4.92612734463E-08  5.12061396350E-08  5.32002403456E-08
  5.52448219561E-08  5.73411623964E-08  5.94905719477E-08  6.16943940608E-08
  6.39540061963E-08  6.62708206853E-08  6.86462856124E-08  7.10818857204E-08
  7.35791433387E-08  7.61396193346E-08  7.87649140889E-08  8.14566684964E-08
  8.42165649911E-08  8.70463285981E-08  8.99477280120E-08  9.29225767017E-08
  9.59727340445E-08  9.91001064881E-08  1.02306648742E-07  1.05594365000E-07
  1.08965310190E-07  1.12421591265E-07  1.15965368512E-07  1.19598856906E-07
  1.23324327498E-07  1.27144108826E-07  1.31060588379E-07  1.35076214084E-07
  1.39193495838E-07  1.43415007075E-07  1.47743386379E-07  1.52181339126E-07
  1.56731639181E-07  1.61397130631E-07  1.66180729560E-07  1.71085425872E-07
  1.76114285162E-07  1.81270450631E-07  1.86557145050E-07  1.91977672776E-07
  1.97535421815E-07  2.03233865940E-07  2.09076566865E-07  2.15067176468E-07
  2.21209439075E-07  2.27507193801E-07  2.33964376946E-07  2.40585024461E-07
  2.47373274466E-07  2.54333369838E-07  2.61469660863E-07  2.68786607955E-07
  2.76288784445E-07  2.83980879437E-07  2.91867700741E-07  2.99954177877E-07
  3.08245365156E-07  3.16746444840E-07  3.25462730381E-07  3.34399669741E-07
  3.43562848798E-07  3.52957994837E-07  3.62590980131E-07  3.72467825608E-07
  3.82594704619E-07  3.92977946792E-07  4.03624041993E-07  4.14539644377E-07
  4.25731576551E-07  4.37206833836E-07  4.48972588643E-07  4.61036194951E-07
  4.73405192906E-07  4.86087313536E-07  4.99090483578E-07  5.12422830436E-07
  5.26092687262E-07  5.40108598161E-07  5.54479323534E-07  5.69213845552E-07
  5.84321373771E-07  5.99811350887E-07  6.15693458641E-07  6.31977623866E-07
  6.48674024698E-07  6.65793096928E-07  6.83345540535E-07  7.01342326368E-07
  7.19794703003E-07  7.38714203776E-07  7.58112653992E-07  7.78002178313E-07
  7.98395208340E-07  8.19304490379E-07  8.40743093414E-07  8.62724417268E-07
  8.85262200984E-07  9.08370531412E-07  9.32063852010E-07  9.56356971874E-07
  9.81265074996E-07  1.00680372975E-06  1.03298889863E-06  1.05983694821E-06
  1.08736465940E-06  1.11558923793E-06  1.14452832505E-06  1.17420000866E-06
  1.20462283451E-06  1.23581581787E-06  1.26779845536E-06  1.30059073717E-06
  1.33421315955E-06  1.36868673760E-06  1.40403301844E-06  1.44027409464E-06
  1.47743261805E-06  1.51553181395E-06  1.55459549559E-06  1.59464807905E-06
  1.63571459848E-06  1.67782072179E-06  1.72099276670E-06  1.76525771712E-06
  1.81064324010E-06  1.85717770307E-06  1.90489019157E-06  1.95381052747E-06
  2.00396928757E-06  2.05539782273E-06  2.10812827745E-06  2.16219360999E-06
  2.21762761293E-06  2.27446493435E-06  2.33274109940E-06  2.39249253260E-06
  2.45375658053E-06  2.51657153522E-06  2.58097665806E-06  2.64701220434E-06
  2.71471944844E-06  2.78414070958E-06  2.85531937831E-06  2.92829994362E-06
  3.00312802074E-06  3.07985037965E-06  3.15851497433E-06  3.23917097269E-06
  3.32186878738E-06  3.40666010721E-06  3.49359792953E-06  3.58273659329E-06
  3.67413181307E-06  3.76784071386E-06  3.86392186676E-06  3.96243532563E-06
  4.06344266458E-06  4.16700701649E-06  4.27319311245E-06  4.38206732223E-06
  4.49369769576E-06  4.60815400564E-06  4.72550779080E-06  4.84583240118E-06
  4.96920304357E-06  5.09569682864E-06  5.22539281913E-06  5.35837207925E-06
  5.49471772536E-06  5.63451497794E-06  5.77785121482E-06  5.92481602581E-06
  6.07550126870E-06  6.23000112668E-06  6.38841216718E-06  6.55083340227E-06
  6.71736635050E-06  6.88811510038E-06  7.06318637545E-06  7.24268960094E-06
  7.42673697223E-06  7.61544352490E-06  7.80892720669E-06  8.00730895121E-06
  8.21071275350E-06  8.41926574756E-06  8.63309828580E-06  8.85234402052E-06
  9.07713998744E-06  9.30762669135E-06  9.54394819395E-06  9.78625220387E-06
  1.00346901690E-05  1.02894173712E-05  1.05505930232E-05  1.08183803683E-05
  1.10929467823E-05  1.13744638782E-05  1.16631076133E-05  1.19590583993E-05
  1.22625012151E-05  1.25736257224E-05  1.28926263842E-05  1.32197025861E-05
  1.35550587614E-05  1.38989045188E-05  1.42514547730E-05  1.46129298793E-05
  1.49835557715E-05  1.53635641029E-05  1.57531923910E-05  1.61526841661E-05
  1.65622891237E-05  1.69822632801E-05  1.74128691329E-05  1.78543758248E-05
  1.83070593118E-05  1.87712025359E-05  1.92470956016E-05  1.97350359576E-05
  2.02353285825E-05  2.07482861756E-05  2.12742293519E-05  2.18134868431E-05
  2.23663957027E-05  2.29333015167E-05  2.35145586198E-05  2.41105303164E-05
  2.47215891084E-05  2.53481169273E-05  2.59905053735E-05  2.66491559607E-05
  2.73244803668E-05  2.80169006917E-05  2.87268497205E-05  2.94547711946E-05
  3.02011200885E-05  3.09663628947E-05  3.17509779147E-05  3.25554555584E-05
  3.33802986507E-05  3.42260227453E-05  3.50931564473E-05  3.59822417435E-05
  3.68938343411E-05  3.78285040152E-05  3.87868349647E-05  3.97694261777E-05
  4.07768918057E-05  4.18098615474E-05  4.28689810427E-05  4.39549122757E-05
  4.50683339887E-05  4.62099421066E-05  4.73804501716E-05  4.85805897893E-05
  4.98111110861E-05  5.10727831778E-05  5.23663946506E-05  5.36927540537E-05
  5.50526904049E-05  5.64470537089E-05  5.78767154879E-05  5.93425693271E-05
  6.08455314330E-05  6.23865412057E-05  6.39665618265E-05  6.55865808598E-05
  6.72476108702E-05  6.89506900554E-05  7.06968828956E-05  7.24872808179E-05
  7.43230028794E-05  7.62051964661E-05  7.81350380104E-05  8.01137337259E-05
  8.21425203619E-05  8.42226659762E-05  8.63554707274E-05  8.85422676879E-05
  9.07844236770E-05  9.30833401153E-05  9.54404539002E-05  9.78572383047E-05
  1.00335203898E-04  1.02875899488E-04  1.05480913094E-04  1.08151872933E-04
  1.10890448443E-04  1.13698351321E-04  1.16577336599E-04  1.19529203737E-04
  1.22555797747E-04  1.25659010349E-04  1.28840781152E-04  1.32103098866E-04
  1.35448002547E-04  1.38877582867E-04  1.42393983427E-04  1.45999402090E-04
  1.49696092362E-04  1.53486364793E-04  1.57372588428E-04  1.61357192282E-04
  1.65442666863E-04  1.69631565726E-04  1.73926507068E-04  1.78330175368E-04
  1.82845323062E-04  1.87474772264E-04  1.92221416530E-04  1.97088222668E-04
  2.02078232590E-04  2.07194565214E-04  2.12440418416E-04  2.17819071023E-04
  2.23333884870E-04  2.28988306894E-04  2.34785871292E-04  2.40730201733E-04
  2.46825013615E-04  2.53074116394E-04  2.59481415963E-04  2.66050917093E-04
  2.72786725936E-04  2.79693052592E-04  2.86774213739E-04  2.94034635334E-04
  3.01478855377E-04  3.09111526748E-04  3.16937420114E-04  3.24961426914E-04
  3.33188562413E-04  3.41623968839E-04  3.50272918596E-04  3.59140817557E-04
  3.68233208450E-04  3.77555774314E-04  3.87114342057E-04  3.96914886094E-04
  4.06963532084E-04  4.17266560759E-04  4.27830411847E-04  4.38661688098E-04
  4.49767159413E-04  4.61153767072E-04  4.72828628077E-04  4.84799039595E-04
  4.97072483524E-04  5.09656631165E-04  5.22559348020E-04  5.35788698707E-04
  5.49352952002E-04  5.63260586003E-04  5.77520293436E-04  5.92140987081E-04
  6.07131805347E-04  6.22502117985E-04  6.38261531939E-04  6.54419897358E-04
  6.70987313744E-04  6.87974136273E-04  7.05390982261E-04  7.23248737805E-04
  7.41558564583E-04  7.60331906833E-04  7.79580498504E-04  7.99316370593E-04
  8.19551858663E-04  8.40299610552E-04  8.61572594281E-04  8.83384106157E-04
  9.05747779084E-04  9.28677591088E-04  9.52187874046E-04  9.76293322650E-04
  1.00100900359E-03  1.02635036497E-03  1.05233324598E-03  1.07897388674E-03
  1.10628893854E-03  1.13429547416E-03  1.16301099861E-03  1.19245346002E-03
  1.22264126090E-03  1.25359326958E-03  1.28532883210E-03  1.31786778421E-03
  1.35123046382E-03  1.38543772368E-03  1.42051094444E-03  1.45647204802E-03
  1.49334351126E-03  1.53114838005E-03  1.56991028364E-03  1.60965344949E-03
  1.65040271838E-03  1.69218355992E-03  1.73502208850E-03  1.77894507960E-03
  1.82397998650E-03  1.87015495751E-03  1.91749885347E-03  1.96604126586E-03
  2.01581253527E-03  2.06684377037E-03  2.11916686733E-03  2.17281452980E-03
  2.22782028931E-03  2.28421852625E-03  2.34204449136E-03  2.40133432774E-03
  2.46212509348E-03  2.52445478478E-03  2.58836235972E-03  2.65388776263E-03
  2.72107194901E-03  2.78995691117E-03  2.86058570444E-03  2.93300247413E-03
  3.00725248308E-03  3.08338213994E-03  3.16143902825E-03  3.24147193609E-03
  3.32353088664E-03  3.40766716941E-03  3.49393337233E-03  3.58238341456E-03
  3.67307258028E-03  3.76605755315E-03  3.86139645182E-03  3.95914886621E-03
  4.05937589474E-03  4.16214018258E-03  4.26750596075E-03  4.37553908630E-03
  4.48630708344E-03  4.59987918578E-03  4.71632637957E-03  4.83572144812E-03
  4.95813901721E-03  5.08365560182E-03  5.21234965389E-03  5.34430161141E-03
  5.47959394863E-03  5.61831122768E-03  5.76054015136E-03  5.90636961739E-03
  6.05589077393E-03  6.20919707656E-03  6.36638434673E-03  6.52755083158E-03
  6.69279726542E-03  6.86222693265E-03  7.03594573233E-03  7.21406224436E-03
  7.39668779736E-03  7.58393653824E-03  7.77592550357E-03  7.97277469269E-03
  8.17460714276E-03  8.38154900563E-03  8.59372962670E-03  8.81128162576E-03
  9.03434097991E-03  9.26304710848E-03  9.49754296027E-03  9.73797510280E-03
  9.98449381401E-03  1.02372531761E-02  1.04964111719E-02  1.07621297836E-02
  1.10345750940E-02  1.13139173902E-02  1.16003312704E-02  1.18939957524E-02
  1.21950943862E-02  1.25038153682E-02  1.28203516591E-02  1.31449011043E-02
  1.34776665579E-02  1.38188560090E-02  1.41686827122E-02  1.45273653205E-02
  1.48951280223E-02  1.52722006812E-02  1.56588189800E-02  1.60552245675E-02
  1.64616652103E-02  1.68783949470E-02  1.73056742471E-02  1.77437701743E-02
  1.81929565526E-02  1.86535141382E-02  1.91257307946E-02  1.96099016726E-02
  2.01063293948E-02  2.06153242445E-02  2.11372043602E-02  2.16722959340E-02
  2.22209334154E-02  2.27834597208E-02  2.33602264474E-02  2.39515940932E-02
  2.45579322822E-02  2.51796199956E-02  2.58170458083E-02  2.64706081324E-02
  2.71407154654E-02  2.78277866463E-02  2.85322511170E-02  2.92545491907E-02
  2.99951323272E-02  3.07544634150E-02  3.15330170608E-02  3.23312798860E-02
  3.31497508308E-02  3.39889414663E-02  3.48493763138E-02  3.57315931732E-02
  3.66361434587E-02  3.75635925438E-02  3.85145201142E-02  3.94895205306E-02
  4.04892032001E-02  4.15141929568E-02  4.25651304528E-02  4.36426725582E-02
  4.47474927718E-02  4.58802816423E-02  4.70417471996E-02  4.82326153975E-02
  4.94536305673E-02  5.07055558833E-02  5.19891738395E-02  5.33052867390E-02
  5.46547171952E-02  5.60383086461E-02  5.74569258812E-02  5.89114555827E-02
  6.04028068789E-02  6.19319119128E-02  6.34997264250E-02  6.51072303505E-02
  6.67554284317E-02  6.84453508459E-02  7.01780538497E-02  7.19546204389E-02
  7.37761610254E-02  7.56438141314E-02  7.75587471009E-02  7.95221568293E-02
  8.15352705116E-02  8.35993464094E-02  8.57156746373E-02  8.78855779694E-02
  9.01104126659E-02  9.23915693208E-02  9.47304737314E-02  9.71285877891E-02
  9.95874103931E-02  1.02108478388E-01  1.04693367523E-01  1.07343693437E-01
  1.10061112672E-01  1.12847323702E-01  1.15704068000E-01  1.18633131125E-01
  1.21636343835E-01  1.24715583237E-01  1.27872773956E-01  1.31109889338E-01
  1.34428952687E-01  1.37832038524E-01  1.41321273889E-01  1.44898839668E-01
  1.48566971956E-01  1.52327963455E-01  1.56184164907E-01  1.60137986563E-01
  1.64191899691E-01  1.68348438119E-01  1.72610199818E-01  1.76979848528E-01
  1.81460115421E-01  1.86053800811E-01  1.90763775901E-01  1.95592984577E-01
  2.00544445253E-01  2.05621252753E-01  2.10826580247E-01  2.16163681233E-01
  2.21635891575E-01  2.27246631580E-01  2.32999408145E-01  2.38897816942E-01
  2.44945544669E-01  2.51146371352E-01  2.57504172710E-01  2.64022922575E-01
  2.70706695379E-01  2.77559668698E-01  2.84586125861E-01  2.91790458635E-01
  2.99177169961E-01  3.06750876774E-01  3.14516312889E-01  3.22478331954E-01
  3.30641910492E-01  3.39012151004E-01  3.47594285164E-01  3.56393677084E-01
  3.65415826672E-01  3.74666373063E-01  3.84151098151E-01  3.93875930199E-01
  4.03846947541E-01  4.14070382389E-01  4.24552624723E-01  4.35300226284E-01
  4.46319904675E-01  4.57618547552E-01  4.69203216935E-01  4.81081153620E-01
  4.93259781704E-01  5.05746713226E-01  5.18549752924E-01  5.31676903115E-01
  5.45136368695E-01  5.58936562268E-01  5.73086109405E-01  5.87593854034E-01
  6.02468863966E-01  6.17720436567E-01  6.33358104567E-01  6.49391642017E-01
  6.65831070400E-01  6.82686664894E-01  6.99968960794E-01  7.17688760098E-01
  7.35857138256E-01  7.54485451098E-01  7.73585341924E-01  7.93168748789E-01
  8.13247911958E-01  8.33835381564E-01  8.54944025443E-01  8.76587037187E-01
  8.98777944381E-01  9.21530617066E-01  9.44859276402E-01  9.68778503560E-01
  9.93303248837E-01  1.01844884100E+00  1.04423099685E+00  1.07066583109E+00
  1.09776986634E+00  1.12556004352E+00  1.15405373237E+00  1.18326874240E+00
  1.21322333392E+00  1.24393622954E+00  1.27542662581E+00  1.30771420526E+00
  1.34081914868E+00  1.37476214773E+00  1.40956441789E+00  1.44524771171E+00
  1.48183433242E+00  1.51934714784E+00  1.55780960470E+00  1.59724574330E+00
  1.63768021250E+00  1.67913828515E+00  1.72164587392E+00  1.76522954741E+00
  1.80991654686E+00  1.85573480308E+00  1.90271295398E+00  1.95088036243E+00
  2.00026713463E+00  2.05090413892E+00  2.10282302508E+00  2.15605624410E+00
  2.21063706847E+00  2.26659961300E+00  2.32397885608E+00  2.38281066161E+00
  2.44313180140E+00  2.50497997810E+00  2.56839384886E+00  2.63341304939E+00
  2.70007821883E+00  2.76843102506E+00  2.83851419082E+00  2.91037152037E+00
  2.98404792688E+00  3.05958946049E+00  3.13704333714E+00  3.21645796801E+00
  3.29788298983E+00  3.38136929589E+00  3.46696906785E+00  3.55473580835E+00
  3.64472437447E+00  3.73699101199E+00  3.83159339055E+00  3.92859063973E+00
  4.02804338597E+00  4.13001379046E+00  4.23456558803E+00  4.34176412696E+00
  4.45167640982E+00  4.56437113537E+00  4.67991874147E+00  4.79839144916E+00
  4.91986330771E+00  5.04441024101E+00  5.17211009493E+00  5.30304268605E+00
  5.43728985149E+00  5.57493550010E+00  5.71606566490E+00  5.86076855683E+00
  6.00913461991E+00  6.16125658776E+00  6.31722954156E+00  6.47715096948E+00
  6.64112082763E+00  6.80924160250E+00  6.98161837504E+00  7.15835888636E+00
  7.33957360502E+00  7.52537579613E+00  7.71588159210E+00  7.91121006525E+00
  8.11148330224E+00  8.31682648037E+00  8.52736794580E+00  8.74323929380E+00
  8.96457545100E+00  9.19151475969E+00  9.42419906433E+00  9.66277380018E+00
  9.90738808423E+00  1.01581948084E+01  1.04153507349E+01  1.06790165948E+01
  1.09493571877E+01  1.12265414853E+01  1.15107427367E+01  1.18021385771E+01
  1.21009111383E+01  1.24072471630E+01  1.27213381210E+01  1.30433803294E+01
  1.33735750752E+01  1.37121287408E+01  1.40592529332E+01  1.44151646164E+01
  1.47800862467E+01  1.51542459121E+01  1.55378774746E+01  1.59312207162E+01
  1.63345214894E+01  1.67480318704E+01  1.71720103164E+01  1.76067218279E+01
  1.80524381137E+01  1.85094377610E+01  1.89780064095E+01  1.94584369297E+01
  1.99510296065E+01  2.04560923263E+01  2.09739407697E+01  2.15048986089E+01
  2.20492977097E+01  2.26074783394E+01  2.31797893790E+01  2.37665885416E+01
  2.43682425957E+01  2.49851275946E+01  2.56176291117E+01  2.62661424809E+01
  2.69310730442E+01  2.76128364049E+01  2.83118586872E+01  2.90285768028E+01
  2.97634387240E+01  3.05169037632E+01  3.12894428607E+01  3.20815388785E+01
  3.28936869025E+01  3.37263945517E+01  3.45801822953E+01  3.54555837786E+01
  3.63531461559E+01  3.72734304329E+01  3.82170118174E+01  3.91844800784E+01
  4.01764399149E+01  4.11935113343E+01  4.22363300393E+01  4.33055478254E+01
  4.44018329887E+01  4.55258707430E+01  4.66783636485E+01  4.78600320509E+01
  4.90716145312E+01  5.03138683681E+01  5.15875700106E+01  5.28935155637E+01
  5.42325212858E+01  5.56054240992E+01  5.70130821128E+01  5.84563751587E+01
  5.99362053419E+01  6.14534976046E+01  6.30092003038E+01  6.46042858044E+01
  6.62397510866E+01  6.79166183696E+01  6.96359357499E+01  7.13987778570E+01
  7.32062465244E+01  7.50594714790E+01  7.69596110467E+01  7.89078528765E+01
  8.09054146831E+01  8.29535450076E+01  8.50535239981E+01  8.72066642099E+01
  8.94143114256E+01  9.16778454966E+01  9.39986812055E+01  9.63782691500E+01
  9.88180966502E+01  1.01319688678E+02  1.03884608809E+02  1.06514460202E+02
  1.09210886600E+02  1.11975573358E+02  1.14810248494E+02  1.17716683773E+02
  1.20696695811E+02  1.23752147213E+02  1.26884947735E+02  1.30097055481E+02
  1.33390478121E+02  1.36767274152E+02  1.40229554182E+02  1.43779482247E+02
  1.47419277170E+02  1.51151213940E+02  1.54977625139E+02
  </PP_R>
  <PP_RAB>
  6.89124819202E-10  7.06570097056E-10  7.24457004222E-10  7.42796720599E-10
  7.61600709106E-10  7.80880722848E-10  8.00648812462E-10  8.20917333648E-10
  8.41698954889E-10  8.63006665378E-10  8.84853783125E-10  9.07253963291E-10
  9.30221206718E-10  9.53769868681E-10  9.77914667859E-10  1.00267069554E-09
  1.02805342504E-09  1.05407872140E-09  1.08076285128E-09  1.10812249312E-09
  1.13617474758E-09  1.16493714826E-09  1.19442767257E-09  1.22466475306E-09
  1.25566728888E-09  1.28745465764E-09  1.32004672747E-09  1.35346386947E-09
  1.38772697045E-09  1.42285744596E-09  1.45887725370E-09  1.49580890721E-09
  1.53367548997E-09  1.57250066985E-09  1.61230871383E-09  1.65312450324E-09
  1.69497354928E-09  1.73788200897E-09  1.78187670148E-09  1.82698512494E-09
  1.87323547358E-09  1.92065665536E-09  1.96927831008E-09  2.01913082784E-09
  2.07024536810E-09  2.12265387911E-09  2.17638911789E-09  2.23148467072E-09
  2.28797497411E-09  2.34589533634E-09  2.40528195951E-09  2.46617196221E-09
  2.52860340267E-09  2.59261530257E-09  2.65824767142E-09  2.72554153161E-09
  2.79453894398E-09  2.86528303415E-09  2.93781801950E-09  3.01218923674E-09
  3.08844317031E-09  3.16662748140E-09  3.24679103775E-09  3.32898394419E-09
  3.41325757396E-09  3.49966460083E-09  3.58825903199E-09  3.67909624186E-09
  3.77223300664E-09  3.86772753985E-09  3.96563952868E-09  4.06603017130E-09
  4.16896221515E-09  4.27449999608E-09  4.38270947867E-09  4.49365829734E-09
  4.60741579874E-09  4.72405308499E-09  4.84364305820E-09  4.96626046599E-09
  5.09198194825E-09  5.22088608497E-09  5.35305344546E-09  5.48856663860E-09
  5.62751036457E-09  5.76997146770E-09  5.91603899083E-09  6.06580423091E-09
  6.21936079609E-09  6.37680466423E-09  6.53823424286E-09  6.70375043074E-09
  6.87345668086E-09  7.04745906515E-09  7.22586634078E-09  7.40879001809E-09
  7.59634443034E-09  7.78864680514E-09  7.98581733773E-09  8.18797926612E-09
  8.39525894809E-09  8.60778594020E-09  8.82569307872E-09  9.04911656272E-09
  9.27819603915E-09  9.51307469013E-09  9.75389932247E-09  1.00008204594E-08
  1.02539924347E-08  1.05135734890E-08  1.07797258690E-08  1.10526159286E-08
  1.13324142330E-08  1.16192956651E-08  1.19134395353E-08  1.22150296930E-08
  1.25242546419E-08  1.28413076576E-08  1.31663869086E-08  1.34996955801E-08
  1.38414420008E-08  1.41918397732E-08  1.45511079076E-08  1.49194709580E-08
  1.52971591635E-08  1.56844085914E-08  1.60814612852E-08  1.64885654159E-08
  1.69059754366E-08  1.73339522424E-08  1.77727633326E-08  1.82226829784E-08
  1.86839923943E-08  1.91569799136E-08  1.96419411690E-08  2.01391792770E-08
  2.06490050277E-08  2.11717370787E-08  2.17077021545E-08  2.22572352509E-08
  2.28206798438E-08  2.33983881045E-08  2.39907211194E-08  2.45980491161E-08
  2.52207516941E-08  2.58592180629E-08  2.65138472849E-08  2.71850485245E-08
  2.78732413043E-08  2.85788557673E-08  2.93023329455E-08  3.00441250357E-08
  3.08046956820E-08  3.15845202659E-08  3.23840862032E-08  3.32038932485E-08
  3.40444538080E-08  3.49062932593E-08  3.57899502802E-08  3.66959771851E-08
  3.76249402703E-08  3.85774201680E-08  3.95540122091E-08  4.05553267954E-08
  4.15819897811E-08  4.26346428641E-08  4.37139439867E-08  4.48205677473E-08
  4.59552058218E-08  4.71185673959E-08  4.83113796085E-08  4.95343880060E-08
  5.07883570084E-08  5.20740703873E-08  5.33923317554E-08  5.47439650689E-08
  5.61298151426E-08  5.75507481779E-08  5.90076523043E-08  6.05014381342E-08
  6.20330393325E-08  6.36034131997E-08  6.52135412706E-08  6.68644299277E-08
  6.85571110301E-08  7.02926425587E-08  7.20721092770E-08  7.38966234098E-08
  7.57673253378E-08  7.76853843105E-08  7.96519991773E-08  8.16683991365E-08
  8.37358445037E-08  8.58556274995E-08  8.80290730574E-08  9.02575396515E-08
  9.25424201460E-08  9.48851426656E-08  9.72871714882E-08  9.97500079599E-08
  1.02275191434E-07  1.04864300231E-07  1.07518952631E-07  1.10240807875E-07
  1.13031567213E-07  1.15892974960E-07  1.18826819589E-07  1.21834934849E-07
  1.24919200908E-07  1.28081545535E-07  1.31323945297E-07  1.34648426800E-07
  1.38057067953E-07  1.41551999268E-07  1.45135405190E-07  1.48809525464E-07
  1.52576656537E-07  1.56439152986E-07  1.60399428999E-07  1.64459959876E-07
  1.68623283582E-07  1.72892002329E-07  1.77268784205E-07  1.81756364843E-07
  1.86357549125E-07  1.91075212942E-07  1.95912304986E-07  2.00871848599E-07
  2.05956943657E-07  2.11170768508E-07  2.16516581964E-07  2.21997725332E-07
  2.27617624505E-07  2.33379792103E-07  2.39287829668E-07  2.45345429916E-07
  2.51556379044E-07  2.57924559099E-07  2.64453950398E-07  2.71148634026E-07
  2.78012794376E-07  2.85050721773E-07  2.92266815151E-07  2.99665584801E-07
  3.07251655198E-07  3.15029767880E-07  3.23004784423E-07  3.31181689471E-07
  3.39565593855E-07  3.48161737790E-07  3.56975494144E-07  3.66012371802E-07
  3.75278019108E-07  3.84778227392E-07  3.94518934593E-07  4.04506228972E-07
  4.14746352911E-07  4.25245706822E-07  4.36010853143E-07  4.47048520440E-07
  4.58365607615E-07  4.69969188216E-07  4.81866514859E-07  4.94065023759E-07
  5.06572339382E-07  5.19396279208E-07  5.32544858616E-07  5.46026295897E-07
  5.59849017387E-07  5.74021662737E-07  5.88553090313E-07  6.03452382730E-07
  6.18728852529E-07  6.34392048003E-07  6.50451759158E-07  6.66918023836E-07
  6.83801133990E-07  7.01111642111E-07  7.18860367832E-07  7.37058404684E-07
  7.55717127032E-07  7.74848197186E-07  7.94463572686E-07  8.14575513780E-07
  8.35196591088E-07  8.56339693453E-07  8.78018036003E-07  9.00245168407E-07
  9.23034983346E-07  9.46401725198E-07  9.70359998936E-07  9.94924779261E-07
  1.02011141996E-06  1.04593566351E-06  1.07241365089E-06  1.09956193171E-06
  1.12739747454E-06  1.15593767748E-06  1.18520037911E-06  1.21520386955E-06
  1.24596690197E-06  1.27750870426E-06  1.30984899108E-06  1.34300797616E-06
  1.37700638494E-06  1.41186546754E-06  1.44760701202E-06  1.48425335800E-06
  1.52182741064E-06  1.56035265496E-06  1.59985317048E-06  1.64035364631E-06
  1.68187939657E-06  1.72445637621E-06  1.76811119721E-06  1.81287114527E-06
  1.85876419680E-06  1.90581903647E-06  1.95406507508E-06  2.00353246797E-06
  2.05425213387E-06  2.10625577422E-06  2.15957589300E-06  2.21424581702E-06
  2.27029971675E-06  2.32777262770E-06  2.38670047232E-06  2.44712008244E-06
  2.50906922226E-06  2.57258661203E-06  2.63771195217E-06  2.70448594815E-06
  2.77295033588E-06  2.84314790784E-06  2.91512253980E-06  2.98891921824E-06
  3.06458406849E-06  3.14216438354E-06  3.22170865361E-06  3.30326659647E-06
  3.38688918849E-06  3.47262869650E-06  3.56053871049E-06  3.65067417707E-06
  3.74309143386E-06  3.83784824464E-06  3.93500383551E-06  4.03461893187E-06
  4.13675579640E-06  4.24147826797E-06  4.34885180152E-06  4.45894350902E-06
  4.57182220137E-06  4.68755843141E-06  4.80622453807E-06  4.92789469151E-06
  5.05264493956E-06  5.18055325517E-06  5.31169958521E-06  5.44616590040E-06
  5.58403624657E-06  5.72539679716E-06  5.87033590713E-06  6.01894416814E-06
  6.17131446518E-06  6.32754203466E-06  6.48772452390E-06  6.65196205215E-06
  6.82035727322E-06  6.99301543961E-06  7.17004446830E-06  7.35155500818E-06
  7.53766050925E-06  7.72847729351E-06  7.92412462767E-06  8.12472479767E-06
  8.33040318515E-06  8.54128834580E-06  8.75751208971E-06  8.97920956375E-06
  9.20651933607E-06  9.43958348268E-06  9.67854767624E-06  9.92356127717E-06
  1.01747774269E-05  1.04323531438E-05  1.06964494210E-05  1.09672313273E-05
  1.12448681101E-05  1.15295333016E-05  1.18214048267E-05  1.21206651147E-05
  1.24275012129E-05  1.27421049039E-05  1.30646728253E-05  1.33954065925E-05
  1.37345129249E-05  1.40822037749E-05  1.44386964607E-05  1.48042138018E-05
  1.51789842585E-05  1.55632420744E-05  1.59572274233E-05  1.63611865588E-05
  1.67753719684E-05  1.72000425316E-05  1.76354636814E-05  1.80819075700E-05
  1.85396532394E-05  1.90089867956E-05  1.94902015874E-05  1.99835983896E-05
  2.04894855914E-05  2.10081793886E-05  2.15400039818E-05  2.20852917787E-05
  2.26443836019E-05  2.32176289020E-05  2.38053859760E-05  2.44080221911E-05
  2.50259142146E-05  2.56594482492E-05  2.63090202742E-05  2.69750362933E-05
  2.76579125882E-05  2.83580759789E-05  2.90759640901E-05  2.98120256254E-05
  3.05667206472E-05  3.13405208644E-05  3.21339099274E-05  3.29473837301E-05
  3.37814507202E-05  3.46366322167E-05  3.55134627358E-05  3.64124903252E-05
  3.73342769064E-05  3.82793986260E-05  3.92484462158E-05  4.02420253621E-05
  4.12607570843E-05  4.23052781229E-05  4.33762413374E-05  4.44743161147E-05
  4.56001887874E-05  4.67545630625E-05  4.79381604615E-05  4.91517207713E-05
  5.03960025066E-05  5.16717833840E-05  5.29798608081E-05  5.43210523698E-05
  5.56961963575E-05  5.71061522811E-05  5.85518014088E-05  6.00340473184E-05
  6.15538164618E-05  6.31120587443E-05  6.47097481179E-05  6.63478831906E-05
  6.80274878501E-05  6.97496119040E-05  7.15153317359E-05  7.33257509782E-05
  7.51820012017E-05  7.70852426234E-05  7.90366648311E-05  8.10374875271E-05
  8.30889612909E-05  8.51923683602E-05  8.73490234330E-05  8.95602744889E-05
  9.18275036318E-05  9.41521279537E-05  9.65356004204E-05  9.89794107800E-05
  1.01485086493E-04  1.04054193689E-04  1.06688338144E-04  1.09389166282E-04
  1.12158366211E-04  1.14997668769E-04  1.17908848614E-04  1.20893725328E-04
  1.23954164555E-04  1.27092079170E-04  1.30309430472E-04  1.33608229410E-04
  1.36990537841E-04  1.40458469817E-04  1.44014192909E-04  1.47659929560E-04
  1.51397958473E-04  1.55230616039E-04  1.59160297793E-04  1.63189459914E-04
  1.67320620760E-04  1.71556362441E-04  1.75899332433E-04  1.80352245234E-04
  1.84917884059E-04  1.89599102581E-04  1.94398826714E-04  1.99320056442E-04
  2.04365867694E-04  2.09539414266E-04  2.14843929792E-04  2.20282729769E-04
  2.25859213622E-04  2.31576866837E-04  2.37439263132E-04  2.43450066695E-04
  2.49613034475E-04  2.55932018527E-04  2.62410968422E-04  2.69053933715E-04
  2.75865066474E-04  2.82848623881E-04  2.90008970884E-04  2.97350582935E-04
  3.04878048780E-04  3.12596073331E-04  3.20509480602E-04  3.28623216733E-04
  3.36942353072E-04  3.45472089350E-04  3.54217756929E-04  3.63184822138E-04
  3.72378889683E-04  3.81805706156E-04  3.91471163624E-04  4.01381303313E-04
  4.11542319383E-04  4.21960562799E-04  4.32642545303E-04  4.43594943481E-04
  4.54824602939E-04  4.66338542580E-04  4.78143958991E-04  4.90248230941E-04
  5.02658923994E-04  5.15383795238E-04  5.28430798130E-04  5.41808087474E-04
  5.55524024509E-04  5.69587182144E-04  5.84006350309E-04  5.98790541454E-04
  6.13948996180E-04  6.29491189014E-04  6.45426834333E-04  6.61765892434E-04
  6.78518575760E-04  6.95695355283E-04  7.13306967051E-04  7.31364418892E-04
  7.49878997304E-04  7.68862274499E-04  7.88326115645E-04  8.08282686275E-04
  8.28744459896E-04  8.49724225782E-04  8.71235096970E-04  8.93290518455E-04
  9.15904275593E-04  9.39090502719E-04  9.62863691979E-04  9.87238702390E-04
  1.01223076913E-03  1.03785551305E-03  1.06412895045E-03  1.09106750308E-03
  1.11868800842E-03  1.14700773018E-03  1.17604436911E-03  1.20581607406E-03
  1.23634145331E-03  1.26763958621E-03  1.29973003511E-03  1.33263285760E-03
  1.36636861901E-03  1.40095840528E-03  1.43642383616E-03  1.47278707869E-03
  1.51007086110E-03  1.54829848695E-03  1.58749384975E-03  1.62768144789E-03