<PP_INFO>
Generated using Andrea Dal Corso code (rrkj3)                                   
Author: Andrea Dal Corso   Generation date: unknown                             
Info:      Pd                                                                   
    1        The Pseudo was generated with a Scalar-Relativistic Calculation
  2.40000000000E+00    Local Potential cutoff radius
nl pn  l   occ               Rcut            Rcut US             E pseu
5P  2  1  0.00      2.40000000000      2.40000000000      0.00000000000
4D  3  2  9.00      1.80000000000      2.40000000000      0.00000000000
4D  3  2  0.00      1.80000000000      2.40000000000      0.00000000000
5S  1  0  1.00      2.40000000000      2.40000000000      0.00000000000
</PP_INFO>


<PP_HEADER>
   0                   Version Number
  Pd                   Element
   US                  Ultrasoft pseudopotential
    T                  Nonlinear Core Correction
SLA  PZ   NOGX NOGC    PZ   Exchange-Correlation functional
   10.00000000000      Z valence
  -58.81836671700      Total energy
  0.0000000  0.0000000 Suggested cutoff for wfc and rho
    2                  Max angular momentum component
 1493                  Number of points in mesh
    2    3             Number of Wavefunctions, Number of Projectors
 Wavefunctions         nl  l   occ
                       4D  2  9.00
                       5S  0  1.00
</PP_HEADER>


<PP_MESH>
  <PP_R>
  1.98235209903E-05  2.00227506885E-05  2.02239826784E-05  2.04272370834E-05
  2.06325342291E-05  2.08398946455E-05  2.10493390687E-05  2.12608884434E-05
  2.14745639246E-05  2.16903868801E-05  2.19083788924E-05  2.21285617608E-05
  2.23509575038E-05  2.25755883612E-05  2.28024767963E-05  2.30316454980E-05
  2.32631173835E-05  2.34969156001E-05  2.37330635278E-05  2.39715847817E-05
  2.42125032140E-05  2.44558429168E-05  2.47016282243E-05  2.49498837152E-05
  2.52006342153E-05  2.54539047998E-05  2.57097207960E-05  2.59681077857E-05
  2.62290916078E-05  2.64926983609E-05  2.67589544059E-05  2.70278863687E-05
  2.72995211427E-05  2.75738858915E-05  2.78510080518E-05  2.81309153362E-05
  2.84136357356E-05  2.86991975222E-05  2.89876292525E-05  2.92789597698E-05
  2.95732182076E-05  2.98704339918E-05  3.01706368443E-05  3.04738567856E-05
  3.07801241380E-05  3.10894695284E-05  3.14019238918E-05  3.17175184736E-05
  3.20362848338E-05  3.23582548491E-05  3.26834607169E-05  3.30119349580E-05
  3.33437104201E-05  3.36788202810E-05  3.40172980520E-05  3.43591775812E-05
  3.47044930568E-05  3.50532790106E-05  3.54055703215E-05  3.57614022189E-05
  3.61208102864E-05  3.64838304650E-05  3.68504990570E-05  3.72208527297E-05
  3.75949285186E-05  3.79727638318E-05  3.83543964529E-05  3.87398645457E-05
  3.91292066572E-05  3.95224617220E-05  3.99196690658E-05  4.03208684099E-05
  4.07260998744E-05  4.11354039828E-05  4.15488216659E-05  4.19663942658E-05
  4.23881635401E-05  4.28141716661E-05  4.32444612449E-05  4.36790753059E-05
  4.41180573108E-05  4.45614511582E-05  4.50093011878E-05  4.54616521851E-05
  4.59185493855E-05  4.63800384791E-05  4.68461656152E-05  4.73169774069E-05
  4.77925209357E-05  4.82728437565E-05  4.87579939019E-05  4.92480198873E-05
  4.97429707157E-05  5.02428958827E-05  5.07478453811E-05  5.12578697063E-05
  5.17730198612E-05  5.22933473613E-05  5.28189042397E-05  5.33497430525E-05
  5.38859168841E-05  5.44274793522E-05  5.49744846137E-05  5.55269873694E-05
  5.60850428702E-05  5.66487069219E-05  5.72180358916E-05  5.77930867125E-05
  5.83739168903E-05  5.89605845084E-05  5.95531482341E-05  6.01516673242E-05
  6.07562016312E-05  6.13668116090E-05  6.19835583191E-05  6.26065034367E-05
  6.32357092568E-05  6.38712387005E-05  6.45131553213E-05  6.51615233114E-05
  6.58164075082E-05  6.64778734005E-05  6.71459871356E-05  6.78208155253E-05
  6.85024260531E-05  6.91908868806E-05  6.98862668545E-05  7.05886355133E-05
  7.12980630944E-05  7.20146205413E-05  7.27383795102E-05  7.34694123778E-05
  7.42077922477E-05  7.49535929588E-05  7.57068890916E-05  7.64677559764E-05
  7.72362697005E-05  7.80125071159E-05  7.87965458471E-05  7.95884642985E-05
  8.03883416627E-05  8.11962579280E-05  8.20122938868E-05  8.28365311433E-05
  8.36690521220E-05  8.45099400756E-05  8.53592790936E-05  8.62171541107E-05
  8.70836509150E-05  8.79588561570E-05  8.88428573579E-05  8.97357429186E-05
  9.06376021284E-05  9.15485251738E-05  9.24686031482E-05  9.33979280598E-05
  9.43365928421E-05  9.52846913624E-05  9.62423184311E-05  9.72095698119E-05
  9.81865422307E-05  9.91733333855E-05  1.00170041956E-04  1.01176767615E-04
  1.02193611034E-04  1.03220673900E-04  1.04258058919E-04  1.05305869831E-04
  1.06364211418E-04  1.07433189515E-04  1.08512911020E-04  1.09603483906E-04
  1.10705017233E-04  1.11817621153E-04  1.12941406928E-04  1.14076486939E-04
  1.15222974693E-04  1.16380984840E-04  1.17550633183E-04  1.18732036688E-04
  1.19925313495E-04  1.21130582933E-04  1.22347965531E-04  1.23577583027E-04
  1.24819558384E-04  1.26074015801E-04  1.27341080725E-04  1.28620879863E-04
  1.29913541196E-04  1.31219193991E-04  1.32537968816E-04  1.33869997547E-04
  1.35215413390E-04  1.36574350887E-04  1.37946945933E-04  1.39333335788E-04
  1.40733659093E-04  1.42148055882E-04  1.43576667594E-04  1.45019637093E-04
  1.46477108676E-04  1.47949228092E-04  1.49436142554E-04  1.50938000755E-04
  1.52454952882E-04  1.53987150632E-04  1.55534747224E-04  1.57097897421E-04
  1.58676757539E-04  1.60271485465E-04  1.61882240672E-04  1.63509184239E-04
  1.65152478860E-04  1.66812288867E-04  1.68488780242E-04  1.70182120635E-04
  1.71892479382E-04  1.73620027521E-04  1.75364937807E-04  1.77127384732E-04
  1.78907544544E-04  1.80705595259E-04  1.82521716685E-04  1.84356090434E-04
  1.86208899946E-04  1.88080330503E-04  1.89970569249E-04  1.91879805211E-04
  1.93808229314E-04  1.95756034401E-04  1.97723415254E-04  1.99710568614E-04
  2.01717693197E-04  2.03744989718E-04  2.05792660907E-04  2.07860911534E-04
  2.09949948425E-04  2.12059980486E-04  2.14191218721E-04  2.16343876258E-04
  2.18518168362E-04  2.20714312465E-04  2.22932528183E-04  2.25173037339E-04
  2.27436063988E-04  2.29721834432E-04  2.32030577250E-04  2.34362523321E-04
  2.36717905838E-04  2.39096960344E-04  2.41499924744E-04  2.43927039339E-04
  2.46378546841E-04  2.48854692402E-04  2.51355723641E-04  2.53881890661E-04
  2.56433446082E-04  2.59010645061E-04  2.61613745320E-04  2.64243007172E-04
  2.66898693545E-04  2.69581070010E-04  2.72290404806E-04  2.75026968870E-04
  2.77791035859E-04  2.80582882184E-04  2.83402787031E-04  2.86251032393E-04
  2.89127903097E-04  2.92033686831E-04  2.94968674178E-04  2.97933158638E-04
  3.00927436663E-04  3.03951807681E-04  3.07006574134E-04  3.10092041500E-04
  3.13208518329E-04  3.16356316270E-04  3.19535750107E-04  3.22747137784E-04
  3.25990800445E-04  3.29267062458E-04  3.32576251451E-04  3.35918698346E-04
  3.39294737391E-04  3.42704706192E-04  3.46148945750E-04  3.49627800491E-04
  3.53141618303E-04  3.56690750572E-04  3.60275552212E-04  3.63896381708E-04
  3.67553601146E-04  3.71247576250E-04  3.74978676421E-04  3.78747274772E-04
  3.82553748166E-04  3.86398477253E-04  3.90281846511E-04  3.94204244278E-04
  3.98166062799E-04  4.02167698257E-04  4.06209550820E-04  4.10292024677E-04
  4.14415528079E-04  4.18580473378E-04  4.22787277074E-04  4.27036359849E-04
  4.31328146617E-04  4.35663066558E-04  4.40041553170E-04  4.44464044303E-04
  4.48930982211E-04  4.53442813592E-04  4.57999989631E-04  4.62602966052E-04
  4.67252203154E-04  4.71948165866E-04  4.76691323788E-04  4.81482151240E-04
  4.86321127308E-04  4.91208735894E-04  4.96145465763E-04  5.01131810592E-04
  5.06168269020E-04  5.11255344696E-04  5.16393546333E-04  5.21583387755E-04
  5.26825387950E-04  5.32120071123E-04  5.37467966747E-04  5.42869609615E-04
  5.48325539896E-04  5.53836303189E-04  5.59402450573E-04  5.65024538669E-04
  5.70703129689E-04  5.76438791498E-04  5.82232097666E-04  5.88083627529E-04
  5.93993966245E-04  5.99963704853E-04  6.05993440331E-04  6.12083775659E-04
  6.18235319874E-04  6.24448688136E-04  6.30724501787E-04  6.37063388414E-04
  6.43465981911E-04  6.49932922542E-04  6.56464857007E-04  6.63062438505E-04
  6.69726326799E-04  6.76457188284E-04  6.83255696051E-04  6.90122529958E-04
  6.97058376693E-04  7.04063929846E-04  7.11139889979E-04  7.18286964693E-04
  7.25505868703E-04  7.32797323904E-04  7.40162059448E-04  7.47600811815E-04
  7.55114324886E-04  7.62703350018E-04  7.70368646122E-04  7.78110979732E-04
  7.85931125088E-04  7.93829864212E-04  8.01807986983E-04  8.09866291222E-04
  8.18005582765E-04  8.26226675547E-04  8.34530391686E-04  8.42917561559E-04
  8.51389023891E-04  8.59945625835E-04  8.68588223058E-04  8.77317679827E-04
  8.86134869095E-04  8.95040672588E-04  9.04035980895E-04  9.13121693553E-04
  9.22298719142E-04  9.31567975370E-04  9.40930389173E-04  9.50386896799E-04
  9.59938443906E-04  9.69585985658E-04  9.79330486816E-04  9.89172921840E-04
  9.99114274979E-04  1.00915554038E-03  1.01929772217E-03  1.02954183459E-03
  1.03988890205E-03  1.05033995926E-03  1.06089605135E-03  1.07155823392E-03
  1.08232757321E-03  1.09320514617E-03  1.10419204054E-03  1.11528935504E-03
  1.12649819941E-03  1.13781969453E-03  1.14925497257E-03  1.16080517707E-03
  1.17247146305E-03  1.18425499716E-03  1.19615695775E-03  1.20817853503E-03
  1.22032093118E-03  1.23258536043E-03  1.24497304925E-03  1.25748523641E-03
  1.27012317314E-03  1.28288812325E-03  1.29578136324E-03  1.30880418244E-03
  1.32195788316E-03  1.33524378076E-03  1.34866320386E-03  1.36221749439E-03
  1.37590800782E-03  1.38973611319E-03  1.40370319333E-03  1.41781064496E-03
  1.43205987883E-03  1.44645231989E-03  1.46098940739E-03  1.47567259504E-03
  1.49050335118E-03  1.50548315890E-03  1.52061351619E-03  1.53589593610E-03
  1.55133194688E-03  1.56692309215E-03  1.58267093103E-03  1.59857703833E-03
  1.61464300466E-03  1.63087043664E-03  1.64726095702E-03  1.66381620487E-03
  1.68053783572E-03  1.69742752176E-03  1.71448695197E-03  1.73171783230E-03
  1.74912188586E-03  1.76670085306E-03  1.78445649182E-03  1.80239057772E-03
  1.82050490418E-03  1.83880128264E-03  1.85728154277E-03  1.87594753260E-03
  1.89480111874E-03  1.91384418657E-03  1.93307864042E-03  1.95250640374E-03
  1.97212941934E-03  1.99194964951E-03  2.01196907631E-03  2.03218970170E-03
  2.05261354775E-03  2.07324265686E-03  2.09407909197E-03  2.11512493673E-03
  2.13638229575E-03  2.15785329477E-03  2.17954008093E-03  2.20144482291E-03
  2.22356971121E-03  2.24591695833E-03  2.26848879902E-03  2.29128749048E-03
  2.31431531259E-03  2.33757456817E-03  2.36106758315E-03  2.38479670686E-03
  2.40876431222E-03  2.43297279603E-03  2.45742457914E-03  2.48212210676E-03
  2.50706784865E-03  2.53226429942E-03  2.55771397873E-03  2.58341943157E-03
  2.60938322851E-03  2.63560796594E-03  2.66209626637E-03  2.68885077864E-03
  2.71587417823E-03  2.74316916750E-03  2.77073847597E-03  2.79858486060E-03
  2.82671110605E-03  2.85512002497E-03  2.88381445826E-03  2.91279727541E-03
  2.94207137471E-03  2.97163968360E-03  3.00150515893E-03  3.03167078728E-03
  3.06213958524E-03  3.09291459971E-03  3.12399890821E-03  3.15539561921E-03
  3.18710787240E-03  3.21913883903E-03  3.25149172223E-03  3.28416975731E-03
  3.31717621211E-03  3.35051438729E-03  3.38418761670E-03  3.41819926769E-03
  3.45255274145E-03  3.48725147337E-03  3.52229893335E-03  3.55769862615E-03
  3.59345409177E-03  3.62956890581E-03  3.66604667975E-03  3.70289106142E-03
  3.74010573528E-03  3.77769442284E-03  3.81566088298E-03  3.85400891239E-03
  3.89274234590E-03  3.93186505689E-03  3.97138095767E-03  4.01129399985E-03
  4.05160817477E-03  4.09232751389E-03  4.13345608916E-03  4.17499801349E-03
  4.21695744111E-03  4.25933856798E-03  4.30214563225E-03  4.34538291468E-03
  4.38905473901E-03  4.43316547248E-03  4.47771952619E-03  4.52272135559E-03
  4.56817546089E-03  4.61408638754E-03  4.66045872667E-03  4.70729711557E-03
  4.75460623809E-03  4.80239082520E-03  4.85065565540E-03  4.89940555521E-03
  4.94864539965E-03  4.99838011275E-03  5.04861466804E-03  5.09935408900E-03
  5.15060344961E-03  5.20236787486E-03  5.25465254124E-03  5.30746267725E-03
  5.36080356395E-03  5.41468053547E-03  5.46909897956E-03  5.52406433810E-03
  5.57958210769E-03  5.63565784013E-03  5.69229714305E-03  5.74950568043E-03
  5.80728917317E-03  5.86565339967E-03  5.92460419639E-03  5.98414745847E-03
  6.04428914029E-03  6.10503525605E-03  6.16639188043E-03  6.22836514913E-03
  6.29096125954E-03  6.35418647132E-03  6.41804710704E-03  6.48254955282E-03
  6.54770025896E-03  6.61350574058E-03  6.67997257829E-03  6.74710741881E-03
  6.81491697571E-03  6.88340802998E-03  6.95258743079E-03  7.02246209614E-03
  7.09303901354E-03  7.16432524076E-03  7.23632790648E-03  7.30905421102E-03
  7.38251142706E-03  7.45670690041E-03  7.53164805065E-03  7.60734237198E-03
  7.68379743389E-03  7.76102088194E-03  7.83902043855E-03  7.91780390373E-03
  7.99737915590E-03  8.07775415265E-03  8.15893693155E-03  8.24093561094E-03
  8.32375839076E-03  8.40741355336E-03  8.49190946432E-03  8.57725457330E-03
  8.66345741488E-03  8.75052660943E-03  8.83847086393E-03  8.92729897288E-03
  9.01701981916E-03  9.10764237495E-03  9.19917570256E-03  9.29162895541E-03
  9.38501137889E-03  9.47933231134E-03  9.57460118491E-03  9.67082752659E-03
  9.76802095907E-03  9.86619120179E-03  9.96534807185E-03  1.00655014850E-02
  1.01666614567E-02  1.02688381031E-02  1.03720416418E-02  1.04762823933E-02
  1.05815707817E-02  1.06879173361E-02  1.07953326911E-02  1.09038275884E-02
  1.10134128775E-02  1.11240995171E-02  1.12358985759E-02  1.13488212339E-02
  1.14628787835E-02  1.15780826306E-02  1.16944442955E-02  1.18119754147E-02
  1.19306877412E-02  1.20505931464E-02  1.21717036210E-02  1.22940312761E-02
  1.24175883445E-02  1.25423871822E-02  1.26684402690E-02  1.27957602104E-02
  1.29243597385E-02  1.30542517133E-02  1.31854491242E-02  1.33179650910E-02
  1.34518128654E-02  1.35870058322E-02  1.37235575110E-02  1.38614815570E-02
  1.40007917627E-02  1.41415020592E-02  1.42836265177E-02  1.44271793508E-02
  1.45721749138E-02  1.47186277065E-02  1.48665523742E-02  1.50159637095E-02
  1.51668766537E-02  1.53193062982E-02  1.54732678861E-02  1.56287768137E-02
  1.57858486320E-02  1.59444990484E-02  1.61047439279E-02  1.62665992952E-02
  1.64300813360E-02  1.65952063986E-02  1.67619909957E-02  1.69304518059E-02
  1.71006056754E-02  1.72724696196E-02  1.74460608253E-02  1.76213966515E-02
  1.77984946321E-02  1.79773724770E-02  1.81580480742E-02  1.83405394912E-02
  1.85248649775E-02  1.87110429658E-02  1.88990920739E-02  1.90890311070E-02
  1.92808790591E-02  1.94746551151E-02  1.96703786530E-02  1.98680692450E-02
  2.00677466606E-02  2.02694308675E-02  2.04731420344E-02  2.06789005326E-02
  2.08867269381E-02  2.10966420337E-02  2.13086668110E-02  2.15228224728E-02
  2.17391304348E-02  2.19576123279E-02  2.21782900006E-02  2.24011855207E-02
  2.26263211781E-02  2.28537194864E-02  2.30834031858E-02  2.33153952447E-02
  2.35497188625E-02  2.37863974719E-02  2.40254547408E-02  2.42669145752E-02
  2.45108011213E-02  2.47571387679E-02  2.50059521491E-02  2.52572661463E-02
  2.55111058911E-02  2.57674967678E-02  2.60264644157E-02  2.62880347317E-02
  2.65522338730E-02  2.68190882599E-02  2.70886245780E-02  2.73608697811E-02
  2.76358510939E-02  2.79135960150E-02  2.81941323188E-02  2.84774880594E-02
  2.87636915726E-02  2.90527714788E-02  2.93447566864E-02  2.96396763942E-02
  2.99375600943E-02  3.02384375753E-02  3.05423389253E-02  3.08492945346E-02
  3.11593350991E-02  3.14724916231E-02  3.17887954225E-02  3.21082781279E-02
  3.24309716879E-02  3.27569083720E-02  3.30861207743E-02  3.34186418163E-02
  3.37545047502E-02  3.40937431628E-02  3.44363909781E-02  3.47824824612E-02
  3.51320522216E-02  3.54851352164E-02  3.58417667544E-02  3.62019824988E-02
  3.65658184717E-02  3.69333110569E-02  3.73044970040E-02  3.76794134319E-02
  3.80580978325E-02  3.84405880746E-02  3.88269224076E-02  3.92171394652E-02
  3.96112782694E-02  4.00093782344E-02  4.04114791706E-02  4.08176212884E-02
  4.12278452023E-02  4.16421919351E-02  4.20607029218E-02  4.24834200138E-02
  4.29103854833E-02  4.33416420270E-02  4.37772327711E-02  4.42172012749E-02
  4.46615915357E-02  4.51104479929E-02  4.55638155325E-02  4.60217394916E-02
  4.64842656630E-02  4.69514402997E-02  4.74233101195E-02  4.78999223099E-02
  4.83813245324E-02  4.88675649277E-02  4.93586921203E-02  4.98547552231E-02
  5.03558038431E-02  5.08618880853E-02  5.13730585588E-02  5.18893663810E-02
  5.24108631830E-02  5.29376011150E-02  5.34696328512E-02  5.40070115953E-02
  5.45497910856E-02  5.50980256004E-02  5.56517699637E-02  5.62110795503E-02
  5.67760102918E-02  5.73466186816E-02  5.79229617811E-02  5.85050972250E-02
  5.90930832274E-02  5.96869785873E-02  6.02868426949E-02  6.08927355369E-02
  6.15047177033E-02  6.21228503927E-02  6.27471954189E-02  6.33778152169E-02
  6.40147728493E-02  6.46581320122E-02  6.53079570423E-02  6.59643129225E-02
  6.66272652890E-02  6.72968804375E-02  6.79732253301E-02  6.86563676020E-02
  6.93463755677E-02  7.00433182289E-02  7.07472652802E-02  7.14582871170E-02
  7.21764548421E-02  7.29018402728E-02  7.36345159483E-02  7.43745551367E-02
  7.51220318427E-02  7.58770208144E-02  7.66395975514E-02  7.74098383121E-02
  7.81878201211E-02  7.89736207772E-02  7.97673188613E-02  8.05689937437E-02
  8.13787255926E-02  8.21965953819E-02  8.30226848993E-02  8.38570767543E-02
  8.46998543869E-02  8.55511020754E-02  8.64109049455E-02  8.72793489781E-02
  8.81565210184E-02  8.90425087842E-02  8.99374008750E-02  9.08412867809E-02
  9.17542568912E-02  9.26764025037E-02  9.36078158336E-02  9.45485900231E-02
  9.54988191504E-02  9.64585982392E-02  9.74280232682E-02  9.84071911807E-02
  9.93961998944E-02  1.00395148311E-01  1.01404136326E-01  1.02423264839E-01
  1.03452635764E-01  1.04492352039E-01  1.05542517636E-01  1.06603237572E-01
  1.07674617922E-01  1.08756765822E-01  1.09849789491E-01  1.10953798229E-01
  1.12068902440E-01  1.13195213634E-01  1.14332844444E-01  1.15481908634E-01
  1.16642521111E-01  1.17814797938E-01  1.18998856342E-01  1.20194814731E-01
  1.21402792702E-01  1.22622911053E-01  1.23855291797E-01  1.25100058174E-01
  1.26357334661E-01  1.27627246987E-01  1.28909922143E-01  1.30205488400E-01
  1.31514075313E-01  1.32835813744E-01  1.34170835867E-01  1.35519275185E-01
  1.36881266544E-01  1.38256946144E-01  1.39646451553E-01  1.41049921724E-01
  1.42467497004E-01  1.43899319153E-01  1.45345531354E-01  1.46806278229E-01
  1.48281705854E-01  1.49771961774E-01  1.51277195014E-01  1.52797556100E-01
  1.54333197069E-01  1.55884271486E-01  1.57450934460E-01  1.59033342659E-01
  1.60631654325E-01  1.62246029290E-01  1.63876628993E-01  1.65523616495E-01
  1.67187156497E-01  1.68867415354E-01  1.70564561094E-01  1.72278763432E-01
  1.74010193789E-01  1.75759025311E-01  1.77525432882E-01  1.79309593144E-01
  1.81111684515E-01  1.82931887205E-01  1.84770383237E-01  1.86627356460E-01
  1.88502992575E-01  1.90397479147E-01  1.92311005624E-01  1.94243763363E-01
  1.96195945640E-01  1.98167747675E-01  2.00159366650E-01  2.02171001728E-01
  2.04202854075E-01  2.06255126877E-01  2.08328025364E-01  2.10421756828E-01
  2.12536530642E-01  2.14672558286E-01  2.16830053366E-01  2.19009231631E-01
  2.21210311002E-01  2.23433511588E-01  2.25679055712E-01  2.27947167929E-01
  2.30238075053E-01  2.32552006176E-01  2.34889192694E-01  2.37249868327E-01
  2.39634269144E-01  2.42042633588E-01  2.44475202497E-01  2.46932219130E-01
  2.49413929191E-01  2.51920580853E-01  2.54452424782E-01  2.57009714166E-01
  2.59592704736E-01  2.62201654792E-01  2.64836825233E-01  2.67498479576E-01
  2.70186883991E-01  2.72902307319E-01  2.75645021105E-01  2.78415299623E-01
  2.81213419903E-01  2.84039661759E-01  2.86894307819E-01  2.89777643548E-01
  2.92689957283E-01  2.95631540257E-01  2.98602686632E-01  3.01603693525E-01
  3.04634861038E-01  3.07696492291E-01  3.10788893450E-01  3.13912373757E-01
  3.17067245563E-01  3.20253824357E-01  3.23472428802E-01  3.26723380758E-01
  3.30007005325E-01  3.33323630868E-01  3.36673589051E-01  3.40057214874E-01
  3.43474846701E-01  3.46926826300E-01  3.50413498870E-01  3.53935213082E-01
  3.57492321111E-01  3.61085178669E-01  3.64714145047E-01  3.68379583142E-01
  3.72081859503E-01  3.75821344360E-01  3.79598411665E-01  3.83413439127E-01
  3.87266808252E-01  3.91158904382E-01  3.95090116727E-01  3.99060838413E-01
  4.03071466516E-01  4.07122402102E-01  4.11214050266E-01  4.15346820179E-01
  4.19521125120E-01  4.23737382522E-01  4.27996014017E-01  4.32297445469E-01
  4.36642107026E-01  4.41030433157E-01  4.45462862700E-01  4.49939838900E-01
  4.54461809459E-01  4.59029226577E-01  4.63642547001E-01  4.68302232065E-01
  4.73008747743E-01  4.77762564691E-01  4.82564158292E-01  4.87414008712E-01
  4.92312600939E-01  4.97260424836E-01  5.02257975190E-01  5.07305751760E-01
  5.12404259328E-01  5.17554007748E-01  5.22755512001E-01  5.28009292241E-01
  5.33315873850E-01  5.38675787491E-01  5.44089569160E-01  5.49557760238E-01
  5.55080907551E-01  5.60659563417E-01  5.66294285707E-01  5.71985637897E-01
  5.77734189128E-01  5.83540514259E-01  5.89405193927E-01  5.95328814607E-01
  6.01311968663E-01  6.07355254418E-01  6.13459276205E-01  6.19624644430E-01
  6.25851975636E-01  6.32141892561E-01  6.38495024202E-01  6.44912005878E-01
  6.51393479291E-01  6.57940092596E-01  6.64552500458E-01  6.71231364123E-01
  6.77977351485E-01  6.84791137147E-01  6.91673402493E-01  6.98624835756E-01
  7.05646132084E-01  7.12737993614E-01  7.19901129537E-01  7.27136256173E-01
  7.34444097040E-01  7.41825382929E-01  7.49280851975E-01  7.56811249730E-01
  7.64417329241E-01  7.72099851122E-01  7.79859583632E-01  7.87697302749E-01
  7.95613792254E-01  8.03609843800E-01  8.11686257001E-01  8.19843839504E-01
  8.28083407074E-01  8.36405783675E-01  8.44811801551E-01  8.53302301311E-01
  8.61878132012E-01  8.70540151245E-01  8.79289225219E-01  8.88126228848E-01
  8.97052045839E-01  9.06067568783E-01  9.15173699239E-01  9.24371347827E-01
  9.33661434321E-01  9.43044887736E-01  9.52522646426E-01  9.62095658174E-01
  9.71764880289E-01  9.81531279703E-01  9.91395833062E-01  1.00135952683E+00
  1.01142335739E+00  1.02158833112E+00  1.03185546454E+00  1.04222578437E+00
  1.05270032764E+00  1.06328014182E+00  1.07396628490E+00  1.08475982551E+00
  1.09566184300E+00  1.10667342759E+00  1.11779568045E+00  1.12902971380E+00
  1.14037665107E+00  1.15183762695E+00  1.16341378755E+00  1.17510629051E+00
  1.18691630507E+00  1.19884501225E+00  1.21089360493E+00  1.22306328798E+00
  1.23535527838E+00  1.24777080534E+00  1.26031111041E+00  1.27297744765E+00
  1.28577108369E+00  1.29869329792E+00  1.31174538255E+00  1.32492864282E+00
  1.33824439705E+00  1.35169397684E+00  1.36527872716E+00  1.37900000648E+00
  1.39285918696E+00  1.40685765451E+00  1.42099680900E+00  1.43527806436E+00
  1.44970284872E+00  1.46427260457E+00  1.47898878890E+00  1.49385287334E+00
  1.50886634432E+00  1.52403070319E+00  1.53934746640E+00  1.55481816564E+00
  1.57044434799E+00  1.58622757608E+00  1.60216942825E+00  1.61827149870E+00
  1.63453539765E+00  1.65096275150E+00  1.66755520301E+00  1.68431441142E+00
  1.70124205268E+00  1.71833981956E+00  1.73560942185E+00  1.75305258653E+00
  1.77067105793E+00  1.78846659792E+00  1.80644098605E+00  1.82459601979E+00
  1.84293351465E+00  1.86145530440E+00  1.88016324122E+00  1.89905919594E+00
  1.91814505817E+00  1.93742273649E+00  1.95689415871E+00  1.97656127197E+00
  1.99642604300E+00  2.01649045831E+00  2.03675652434E+00  2.05722626772E+00
  2.07790173544E+00  2.09878499506E+00  2.11987813494E+00  2.14118326439E+00
  2.16270251396E+00  2.18443803557E+00  2.20639200282E+00  2.22856661110E+00
  2.25096407790E+00  2.27358664298E+00  2.29643656862E+00  2.31951613984E+00
  2.34282766460E+00  2.36637347407E+00  2.39015592287E+00  2.41417738925E+00
  2.43844027539E+00  2.46294700758E+00  2.48770003653E+00  2.51270183755E+00
  2.53795491085E+00  2.56346178175E+00  2.58922500097E+00  2.61524714485E+00
  2.64153081562E+00  2.66807864168E+00  2.69489327782E+00  2.72197740554E+00
  2.74933373326E+00  2.77696499665E+00  2.80487395886E+00  2.83306341079E+00
  2.86153617143E+00  2.89029508807E+00  2.91934303663E+00  2.94868292192E+00
  2.97831767797E+00  3.00825026826E+00  3.03848368609E+00  3.06902095481E+00
  3.09986512820E+00  3.13101929067E+00  3.16248655769E+00  3.19427007599E+00
  3.22637302397E+00  3.25879861194E+00  3.29155008248E+00  3.32463071077E+00
  3.35804380491E+00  3.39179270623E+00  3.42588078964E+00  3.46031146398E+00
  3.49508817236E+00  3.53021439247E+00  3.56569363695E+00  3.60152945378E+00
  3.63772542655E+00  3.67428517489E+00  3.71121235481E+00  3.74851065906E+00
  3.78618381750E+00  3.82423559748E+00  3.86266980420E+00  3.90149028113E+00
  3.94070091033E+00  3.98030561291E+00  4.02030834936E+00  4.06071312000E+00
  4.10152396534E+00  4.14274496649E+00  4.18438024559E+00  4.22643396620E+00
  4.26891033373E+00  4.31181359586E+00  4.35514804293E+00  4.39891800844E+00
  4.44312786941E+00  4.48778204688E+00  4.53288500628E+00  4.57844125797E+00
  4.62445535760E+00  4.67093190662E+00  4.71787555272E+00  4.76529099030E+00
  4.81318296096E+00  4.86155625392E+00  4.91041570657E+00  4.95976620487E+00
  5.00961268393E+00  5.05996012843E+00  5.11081357316E+00  5.16217810350E+00
  5.21405885596E+00  5.26646101865E+00  5.31938983183E+00  5.37285058843E+00
  5.42684863456E+00  5.48138937008E+00  5.53647824910E+00  5.59212078056E+00
  5.64832252876E+00  5.70508911392E+00  5.76242621274E+00  5.82033955899E+00
  5.87883494405E+00  5.93791821749E+00  5.99759528771E+00  6.05787212246E+00
  6.11875474946E+00  6.18024925704E+00  6.24236179470E+00  6.30509857373E+00
  6.36846586788E+00  6.43247001392E+00  6.49711741233E+00  6.56241452789E+00
  6.62836789037E+00  6.69498409516E+00  6.76226980394E+00  6.83023174534E+00
  6.89887671561E+00  6.96821157929E+00  7.03824326994E+00  7.10897879078E+00
  7.18042521543E+00  7.25258968858E+00  7.32547942674E+00  7.39910171895E+00
  7.47346392750E+00  7.54857348867E+00  7.62443791348E+00  7.70106478843E+00
  7.77846177628E+00  7.85663661679E+00  7.93559712751E+00  8.01535120455E+00
  8.09590682340E+00  8.17727203967E+00  8.25945498996E+00  8.34246389263E+00
  8.42630704865E+00  8.51099284239E+00  8.59652974251E+00  8.68292630276E+00
  8.77019116289E+00  8.85833304943E+00  8.94736077667E+00  9.03728324743E+00
  9.12810945406E+00  9.21984847923E+00  9.31250949694E+00  9.40610177336E+00
  9.50063466779E+00  9.59611763361E+00  9.69256021919E+00  9.78997206886E+00
  9.88836292390E+00  9.98774262348E+00  1.00881211056E+01  1.01895084083E+01
  1.02919146703E+01  1.03953501324E+01  1.04998251381E+01  1.06053501351E+01
  1.07119356759E+01  1.08195924193E+01  1.09283311309E+01  1.10381626847E+01
  1.11490980640E+01  1.12611483624E+01  1.13743247850E+01  1.14886386495E+01
  1.16041013875E+01  1.17207245453E+01  1.18385197853E+01  1.19574988872E+01
  1.20776737489E+01  1.21990563881E+01  1.23216589431E+01  1.24454936742E+01
  1.25705729651E+01  1.26969093237E+01  1.28245153839E+01  1.29534039063E+01
  1.30835877798E+01  1.32150800231E+01  1.33478937853E+01  1.34820423481E+01
  1.36175391263E+01  1.37543976698E+01  1.38926316646E+01  1.40322549340E+01
  1.41732814407E+01  1.43157252873E+01  1.44596007184E+01  1.46049221215E+01
  1.47517040291E+01  1.48999611194E+01  1.50497082182E+01  1.52009603003E+01
  1.53537324912E+01  1.55080400681E+01  1.56638984619E+01  1.58213232587E+01
  1.59803302009E+01  1.61409351895E+01  1.63031542850E+01  1.64670037096E+01
  1.66324998483E+01  1.67996592508E+01  1.69684986332E+01  1.71390348796E+01
  1.73112850438E+01  1.74852663510E+01  1.76609961993E+01  1.78384921620E+01
  1.80177719887E+01  1.81988536077E+01  1.83817551272E+01  1.85664948375E+01
  1.87530912128E+01  1.89415629128E+01  1.91319287850E+01  1.93242078659E+01
  1.95184193837E+01  1.97145827597E+01  1.99127176105E+01  2.01128437495E+01
  2.03149811898E+01  2.05191501450E+01  2.07253710324E+01  2.09336644742E+01
  2.11440512998E+01  2.13565525482E+01  2.15711894697E+01  2.17879835280E+01
  2.20069564029E+01  2.22281299918E+01  2.24515264122E+01  2.26771680039E+01
  2.29050773314E+01  2.31352771856E+01  2.33677905869E+01  2.36026407867E+01
  2.38398512702E+01  2.40794457587E+01  2.43214482119E+01  2.45658828301E+01
  2.48127740572E+01  2.50621465822E+01  2.53140253429E+01  2.55684355272E+01
  2.58254025763E+01  2.60849521872E+01  2.63471103151E+01  2.66119031759E+01
  2.68793572493E+01  2.71494992807E+01  2.74223562847E+01  2.76979555472E+01
  2.79763246284E+01  2.82574913653E+01  2.85414838749E+01  2.88283305567E+01
  2.91180600955E+01  2.94107014647E+01  2.97062839284E+01  3.00048370454E+01
  3.03063906710E+01  3.06109749610E+01  3.09186203739E+01  3.12293576747E+01
  3.15432179373E+01  3.18602325479E+01  3.21804332084E+01  3.25038519389E+01
  3.28305210818E+01  3.31604733041E+01  3.34937416014E+01  3.38303593008E+01
  3.41703600643E+01  3.45137778923E+01  3.48606471268E+01  3.52110024551E+01
  3.55648789130E+01  3.59223118884E+01  3.62833371249E+01  3.66479907254E+01
  3.70163091555E+01  3.73883292473E+01  3.77640882032E+01  3.81436235995E+01
  3.85269733898E+01  3.89141759096E+01  3.93052698795E+01  3.97002944091E+01
  4.00992890012E+01  4.05022935556E+01  4.09093483731E+01  4.13204941596E+01
  4.17357720299E+01  4.21552235121E+01  4.25788905519E+01  4.30068155162E+01
  4.34390411979E+01  4.38756108199E+01  4.43165680396E+01  4.47619569530E+01
  4.52118220994E+01  4.56662084657E+01  4.61251614908E+01  4.65887270706E+01
  4.70569515619E+01  4.75298817876E+01  4.80075650410E+01  4.84900490910E+01
  4.89773821863E+01  4.94696130606E+01  4.99667909374E+01  5.04689655350E+01
  5.09761870712E+01  5.14885062686E+01  5.20059743595E+01  5.25286430912E+01
  5.30565647310E+01  5.35897920714E+01  5.41283784357E+01  5.46723776830E+01