<PP_INFO>
Generated using Vanderbilt code, version   7  3  5                              
Author: Antonio Suriano  Generation date:    6    6    4                       
Automatically converted from original format                                    
    1        The Pseudo was generated with a Scalar-Relativistic Calculation
  2.24780152603E+00    Local Potential cutoff radius
nl pn  l   occ               Rcut            Rcut US             E pseu
5D  5  2  9.00     10.00000000000      1.80000000000     -0.45139209942
6S  6  0  1.00     10.00000000000      2.26000000000     -0.41592695909
6P  6  1  0.00     10.00000000000      2.32399141017     -0.06174414968
</PP_INFO>


<PP_HEADER>
   0                   Version Number
  pt                   Element
   US                  Ultrasoft pseudopotential
    T                  Nonlinear Core Correction
 SLA  PW   PBE  PBE    PBE  Exchange-Correlation functional
   10.00000000000      Z valence
  -88.39607465395      Total energy
  0.0000000  0.0000000 Suggested cutoff for wfc and rho
    2                  Max angular momentum component
  985                  Number of points in mesh
    3    3             Number of Wavefunctions, Number of Projectors
 Wavefunctions         nl  l   occ
                       5D  2  9.00
                       6S  0  1.00
                       6P  1  0.00
</PP_HEADER>


<PP_MESH>
  <PP_R>
  0.00000000000E+00  1.96479353672E-07  3.96260804275E-07  5.99399847942E-07
  8.05952913492E-07  1.01597737810E-06  1.22953158326E-06  1.44667485094E-06
  1.66746750011E-06  1.89197086350E-06  2.12024730459E-06  2.35236023496E-06
  2.58837413193E-06  2.82835455642E-06  3.07236817122E-06  3.32048275944E-06
  3.57276724341E-06  3.82929170377E-06  4.09012739896E-06  4.35534678502E-06
  4.62502353571E-06  4.89923256297E-06  5.17805003773E-06  5.46155341109E-06
  5.74982143581E-06  6.04293418820E-06  6.34097309034E-06  6.64402093274E-06
  6.95216189730E-06  7.26548158071E-06  7.58406701824E-06  7.90800670790E-06
  8.23739063500E-06  8.57231029720E-06  8.91285872990E-06  9.25913053207E-06
  9.61122189256E-06  9.96923061677E-06  1.03332561539E-05  1.07033996244E-05
  1.10797638485E-05  1.14624533740E-05  1.18515745061E-05  1.22472353365E-05
  1.26495457736E-05  1.30586175727E-05  1.34745643677E-05  1.38975017020E-05
  1.43275470608E-05  1.47648199040E-05  1.52094416991E-05  1.56615359549E-05
  1.61212282562E-05  1.65886462982E-05  1.70639199222E-05  1.75471811518E-05
  1.80385642292E-05  1.85382056530E-05  1.90462442157E-05  1.95628210422E-05
  2.00880796296E-05  2.06221658864E-05  2.11652281732E-05  2.17174173443E-05
  2.22788867890E-05  2.28497924747E-05  2.34302929899E-05  2.40205495886E-05
  2.46207262347E-05  2.52309896479E-05  2.58515093495E-05  2.64824577103E-05
  2.71240099977E-05  2.77763444248E-05  2.84396421998E-05  2.91140875763E-05
  2.97998679047E-05  3.04971736839E-05  3.12061986143E-05  3.19271396520E-05
  3.26601970630E-05  3.34055744789E-05  3.41634789541E-05  3.49341210222E-05
  3.57177147555E-05  3.65144778240E-05  3.73246315559E-05  3.81484009990E-05
  3.89860149836E-05  3.98377061855E-05  4.07037111911E-05  4.15842705630E-05
  4.24796289067E-05  4.33900349384E-05  4.43157415548E-05  4.52570059023E-05
  4.62140894495E-05  4.71872580589E-05  4.81767820616E-05  4.91829363315E-05
  5.02060003625E-05  5.12462583457E-05  5.23039992482E-05  5.33795168937E-05
  5.44731100442E-05  5.55850824824E-05  5.67157430968E-05  5.78654059671E-05
  5.90343904514E-05  6.02230212751E-05  6.14316286212E-05  6.26605482216E-05
  6.39101214509E-05  6.51806954207E-05  6.64726230764E-05  6.77862632952E-05
  6.91219809854E-05  7.04801471885E-05  7.18611391815E-05  7.32653405822E-05
  7.46931414555E-05  7.61449384221E-05  7.76211347681E-05  7.91221405577E-05
  8.06483727464E-05  8.22002552976E-05  8.37782192996E-05  8.53827030860E-05
  8.70141523570E-05  8.86730203035E-05  9.03597677327E-05  9.20748631965E-05
  9.38187831214E-05  9.55920119406E-05  9.73950422292E-05  9.92283748406E-05
  1.01092519046E-04  1.02987992674E-04  1.04915322258E-04  1.06875043180E-04
  1.08867699820E-04  1.10893845705E-04  1.12954043667E-04  1.15048865997E-04
  1.17178894604E-04  1.19344721174E-04  1.21546947342E-04  1.23786184850E-04
  1.26063055723E-04  1.28378192441E-04  1.30732238111E-04  1.33125846651E-04
  1.35559682966E-04  1.38034423139E-04  1.40550754613E-04  1.43109376384E-04
  1.45710999199E-04  1.48356345746E-04  1.51046150861E-04  1.53781161730E-04
  1.56562138095E-04  1.59389852467E-04  1.62265090342E-04  1.65188650414E-04
  1.68161344802E-04  1.71183999275E-04  1.74257453477E-04  1.77382561166E-04
  1.80560190448E-04  1.83791224017E-04  1.87076559403E-04  1.90417109222E-04
  1.93813801424E-04  1.97267579558E-04  2.00779403028E-04  2.04350247364E-04
  2.07981104489E-04  2.11672982999E-04  2.15426908439E-04  2.19243923590E-04
  2.23125088759E-04  2.27071482072E-04  2.31084199774E-04  2.35164356536E-04
  2.39313085761E-04  2.43531539900E-04  2.47820890772E-04  2.52182329893E-04
  2.56617068800E-04  2.61126339395E-04  2.65711394281E-04  2.70373507115E-04
  2.75113972957E-04  2.79934108634E-04  2.84835253103E-04  2.89818767826E-04
  2.94886037144E-04  3.00038468664E-04  3.05277493651E-04  3.10604567423E-04
  3.16021169756E-04  3.21528805297E-04  3.27129003982E-04  3.32823321455E-04
  3.38613339509E-04  3.44500666520E-04  3.50486937894E-04  3.56573816522E-04
  3.62762993243E-04  3.69056187313E-04  3.75455146882E-04  3.81961649479E-04
  3.88577502509E-04  3.95304543750E-04  4.02144641869E-04  4.09099696937E-04
  4.16171640959E-04  4.23362438408E-04  4.30674086774E-04  4.38108617119E-04
  4.45668094637E-04  4.53354619232E-04  4.61170326099E-04  4.69117386317E-04
  4.77198007455E-04  4.85414434182E-04  4.93768948890E-04  5.02263872334E-04
  5.10901564267E-04  5.19684424104E-04  5.28614891586E-04  5.37695447455E-04
  5.46928614146E-04  5.56316956486E-04  5.65863082410E-04  5.75569643680E-04
  5.85439336626E-04  5.95474902892E-04  6.05679130201E-04  6.16054853124E-04
  6.26604953876E-04  6.37332363106E-04  6.48240060720E-04  6.59331076704E-04
  6.70608491966E-04  6.82075439196E-04  6.93735103729E-04  7.05590724436E-04
  7.17645594622E-04  7.29903062940E-04  7.42366534319E-04  7.55039470916E-04
  7.67925393073E-04  7.81027880294E-04  7.94350572245E-04  8.07897169758E-04
  8.21671435865E-04  8.35677196839E-04  8.49918343259E-04  8.64398831091E-04
  8.79122682785E-04  8.94093988396E-04  9.09316906715E-04  9.24795666429E-04
  9.40534567292E-04  9.56537981323E-04  9.72810354018E-04  9.89356205585E-04
  1.00618013220E-03  1.02328680728E-03  1.04068098280E-03  1.05836749058E-03
  1.07635124365E-03  1.09463723761E-03  1.11323055204E-03  1.13213635184E-03
  1.15135988877E-03  1.17090650281E-03  1.19078162370E-03  1.21099077244E-03
  1.23153956281E-03  1.25243370294E-03  1.27367899689E-03  1.29528134627E-03
  1.31724675187E-03  1.33958131534E-03  1.36229124086E-03  1.38538283689E-03
  1.40886251791E-03  1.43273680621E-03  1.45701233368E-03  1.48169584369E-03
  1.50679419293E-03  1.53231435331E-03  1.55826341394E-03  1.58464858306E-03
  1.61147719005E-03  1.63875668746E-03  1.66649465313E-03  1.69469879221E-03
  1.72337693937E-03  1.75253706095E-03  1.78218725716E-03  1.81233576437E-03
  1.84299095735E-03  1.87416135163E-03  1.90585560586E-03  1.93808252419E-03
  1.97085105877E-03  2.00417031215E-03  2.03804953992E-03  2.07249815319E-03
  2.10752572123E-03  2.14314197415E-03  2.17935680559E-03  2.21618027545E-03
  2.25362261271E-03  2.29169421825E-03  2.33040566778E-03  2.36976771472E-03
  2.40979129323E-03  2.45048752122E-03  2.49186770346E-03  2.53394333472E-03
  2.57672610294E-03  2.62022789249E-03  2.66446078749E-03  2.70943707514E-03
  2.75516924914E-03  2.80167001317E-03  2.84895228440E-03  2.89702919710E-03
  2.94591410627E-03  2.99562059139E-03  3.04616246011E-03  3.09755375218E-03
  3.14980874328E-03  3.20294194903E-03  3.25696812899E-03  3.31190229077E-03
  3.36775969423E-03  3.42455585567E-03  3.48230655216E-03  3.54102782594E-03
  3.60073598884E-03  3.66144762685E-03  3.72317960472E-03  3.78594907059E-03
  3.84977346085E-03  3.91467050490E-03  3.98065823012E-03  4.04775496684E-03
  4.11597935349E-03  4.18535034172E-03  4.25588720170E-03  4.32760952745E-03
  4.40053724231E-03  4.47469060443E-03  4.55009021246E-03  4.62675701121E-03
  4.70471229751E-03  4.78397772611E-03  4.86457531569E-03  4.94652745499E-03
  5.02985690901E-03  5.11458682538E-03  5.20074074071E-03  5.28834258720E-03
  5.37741669927E-03  5.46798782030E-03  5.56008110951E-03  5.65372214896E-03
  5.74893695066E-03  5.84575196378E-03  5.94419408199E-03  6.04429065097E-03
  6.14606947595E-03  6.24955882950E-03  6.35478745931E-03  6.46178459624E-03
  6.57057996240E-03  6.68120377943E-03  6.79368677688E-03  6.90806020074E-03
  7.02435582216E-03  7.14260594621E-03  7.26284342092E-03  7.38510164635E-03
  7.50941458390E-03  7.63581676576E-03  7.76434330445E-03  7.89502990261E-03
  8.02791286292E-03  8.16302909816E-03  8.30041614149E-03  8.44011215686E-03
  8.58215594962E-03  8.72658697729E-03  8.87344536052E-03  9.02277189427E-03
  9.17460805908E-03  9.32899603264E-03  9.48597870149E-03  9.64559967294E-03
  9.80790328717E-03  9.97293462956E-03  1.01407395432E-02  1.03113646417E-02
  1.04848573220E-02  1.06612657775E-02  1.08406390119E-02  1.10230268520E-02
  1.12084799625E-02  1.13970498593E-02  1.15887889240E-02  1.17837504188E-02
  1.19819885008E-02  1.21835582376E-02  1.23885156220E-02  1.25969175879E-02
  1.28088220261E-02  1.30242878003E-02  1.32433747634E-02  1.34661437745E-02
  1.36926567151E-02  1.39229765071E-02  1.41571671296E-02  1.43952936371E-02
  1.46374221773E-02  1.48836200098E-02  1.51339555244E-02  1.53884982603E-02
  1.56473189256E-02  1.59104894164E-02  1.61780828375E-02  1.64501735221E-02
  1.67268370526E-02  1.70081502817E-02  1.72941913540E-02  1.75850397270E-02
  1.78807761939E-02  1.81814829055E-02  1.84872433935E-02  1.87981425932E-02
  1.91142668676E-02  1.94357040311E-02  1.97625433736E-02  2.00948756862E-02
  2.04327932854E-02  2.07763900394E-02  2.11257613940E-02  2.14810043990E-02
  2.18422177353E-02  2.22095017423E-02  2.25829584457E-02  2.29626915858E-02
  2.33488066465E-02  2.37414108845E-02  2.41406133590E-02  2.45465249622E-02
  2.49592584499E-02  2.53789284729E-02  2.58056516090E-02  2.62395463952E-02
  2.66807333604E-02  2.71293350596E-02  2.75854761071E-02  2.80492832118E-02
  2.85208852119E-02  2.90004131110E-02  2.94880001145E-02  2.99837816662E-02
  3.04878954864E-02  3.10004816101E-02  3.15216824255E-02  3.20516427141E-02
  3.25905096903E-02  3.31384330430E-02  3.36955649765E-02  3.42620602534E-02
  3.48380762371E-02  3.54237729357E-02  3.60193130466E-02  3.66248620013E-02
  3.72405880117E-02  3.78666621170E-02  3.85032582305E-02  3.91505531886E-02
  3.98087267997E-02  4.04779618939E-02  4.11584443742E-02  4.18503632679E-02
  4.25539107791E-02  4.32692823423E-02  4.39966766762E-02  4.47362958397E-02
  4.54883452872E-02  4.62530339262E-02  4.70305741750E-02  4.78211820222E-02
  4.86250770861E-02  4.94424826760E-02  5.02736258544E-02  5.11187374995E-02
  5.19780523702E-02  5.28518091706E-02  5.37402506164E-02  5.46436235026E-02
  5.55621787720E-02  5.64961715848E-02  5.74458613894E-02  5.84115119946E-02
  5.93933916429E-02  6.03917730849E-02  6.14069336554E-02  6.24391553497E-02
  6.34887249029E-02  6.45559338688E-02  6.56410787012E-02  6.67444608361E-02
  6.78663867757E-02  6.90071681733E-02  7.01671219200E-02  7.13465702326E-02
  7.25458407432E-02  7.37652665903E-02  7.50051865110E-02  7.62659449355E-02
  7.75478920827E-02  7.88513840571E-02  8.01767829483E-02  8.15244569312E-02
  8.28947803683E-02  8.42881339139E-02  8.57049046194E-02  8.71454860415E-02
  8.86102783510E-02  9.00996884439E-02  9.16141300549E-02  9.31540238720E-02
  9.47197976534E-02  9.63118863462E-02  9.79307322076E-02  9.95767849275E-02
  1.01250501753E-01  1.02952347617E-01  1.04682795264E-01  1.06442325386E-01
  1.08231426753E-01  1.10050596349E-01  1.11900339510E-01  1.13781170065E-01
  1.15693610480E-01  1.17638192001E-01  1.19615454801E-01  1.21625948133E-01
  1.23670230480E-01  1.25748869712E-01  1.27862443242E-01  1.30011538186E-01
  1.32196751530E-01  1.34418690292E-01  1.36677971690E-01  1.38975223318E-01
  1.41311083316E-01  1.43686200549E-01  1.46101234787E-01  1.48556856888E-01
  1.51053748985E-01  1.53592604676E-01  1.56174129215E-01  1.58799039707E-01
  1.61468065313E-01  1.64181947445E-01  1.66941439976E-01  1.69747309451E-01
  1.72600335295E-01  1.75501310034E-01  1.78451039513E-01  1.81450343121E-01
  1.84500054015E-01  1.87601019359E-01  1.90754100550E-01  1.93960173466E-01
  1.97220128702E-01  2.00534871823E-01  2.03905323613E-01  2.07332420328E-01
  2.10817113963E-01  2.14360372511E-01  2.17963180232E-01  2.21626537931E-01
  2.25351463229E-01  2.29138990852E-01  2.32990172916E-01  2.36906079219E-01
  2.40887797536E-01  2.44936433926E-01  2.49053113038E-01  2.53238978419E-01
  2.57495192836E-01  2.61822938599E-01  2.66223417887E-01  2.70697853084E-01
  2.75247487117E-01  2.79873583803E-01  2.84577428198E-01  2.89360326957E-01
  2.94223608691E-01  2.99168624346E-01  3.04196747567E-01  3.09309375089E-01
  3.14507927117E-01  3.19793847729E-01  3.25168605269E-01  3.30633692759E-01
  3.36190628316E-01  3.41840955568E-01  3.47586244086E-01  3.53428089821E-01
  3.59368115546E-01  3.65407971305E-01  3.71549334876E-01  3.77793912232E-01
  3.84143438018E-01  3.90599676033E-01  3.97164419716E-01  4.03839492651E-01
  4.10626749067E-01  4.17528074357E-01  4.24545385599E-01  4.31680632093E-01
  4.38935795896E-01  4.46312892380E-01  4.53813970784E-01  4.61441114791E-01
  4.69196443099E-01  4.77082110017E-01  4.85100306059E-01  4.93253258552E-01
  5.01543232259E-01  5.09972530003E-01  5.18543493309E-01  5.27258503057E-01
  5.36119980137E-01  5.45130386129E-01  5.54292223982E-01  5.63608038708E-01
  5.73080418094E-01  5.82711993418E-01  5.92505440179E-01  6.02463478841E-01
  6.12588875592E-01  6.22884443105E-01  6.33353041328E-01  6.43997578271E-01
  6.54821010819E-01  6.65826345550E-01  6.77016639572E-01  6.88395001373E-01
  6.99964591682E-01  7.11728624348E-01  7.23690367233E-01  7.35853143122E-01
  7.48220330640E-01  7.60795365198E-01  7.73581739941E-01  7.86583006723E-01
  7.99802777089E-01  8.13244723284E-01  8.26912579268E-01  8.40810141755E-01
  8.54941271269E-01  8.69309893214E-01  8.83919998967E-01  8.98775646984E-01
  9.13880963929E-01  9.29240145822E-01  9.44857459200E-01  9.60737242307E-01
  9.76883906295E-01  9.93301936453E-01  1.00999589345E+00  1.02697041460E+00
  1.04423021517E+00  1.06178008964E+00  1.07962491310E+00  1.09776964257E+00
  1.11621931835E+00  1.13497906547E+00  1.15405409511E+00  1.17344970600E+00
  1.19317128593E+00  1.21322431324E+00  1.23361435836E+00  1.25434708532E+00
  1.27542825333E+00  1.29686371842E+00  1.31865943502E+00  1.34082145763E+00
  1.36335594252E+00  1.38626914940E+00  1.40956744321E+00  1.43325729584E+00
  1.45734528796E+00  1.48183811084E+00  1.50674256819E+00  1.53206557807E+00
  1.55781417483E+00  1.58399551101E+00  1.61061685938E+00  1.63768561492E+00
  1.66520929692E+00  1.69319555100E+00  1.72165215132E+00  1.75058700266E+00
  1.78000814268E+00  1.80992374410E+00  1.84034211699E+00  1.87127171111E+00
  1.90272111821E+00  1.93469907444E+00  1.96721446276E+00  2.00027631544E+00
  2.03389381654E+00  2.06807630447E+00  2.10283327459E+00  2.13817438183E+00
  2.17410944339E+00  2.21064844147E+00  2.24780152603E+00  2.28557901760E+00
  2.32399141017E+00  2.36304937410E+00  2.40276375908E+00  2.44314559714E+00
  2.48420610570E+00  2.52595669074E+00  2.56840894991E+00  2.61157467577E+00
  2.65546585908E+00  2.70009469211E+00  2.74547357206E+00  2.79161510446E+00
  2.83853210670E+00  2.88623761157E+00  2.93474487092E+00  2.98406735930E+00
  3.03421877772E+00  3.08521305744E+00  3.13706436388E+00  3.18978710050E+00
  3.24339591285E+00  3.29790569261E+00  3.35333158175E+00  3.40968897668E+00
  3.46699353262E+00  3.52526116785E+00  3.58450806822E+00  3.64475069156E+00
  3.70600577234E+00  3.76829032624E+00  3.83162165494E+00  3.89601735086E+00
  3.96149530213E+00  4.02807369748E+00  4.09577103134E+00  4.16460610896E+00
  4.23459805164E+00  4.30576630203E+00  4.37813062954E+00  4.45171113586E+00
  4.52652826047E+00  4.60260278640E+00  4.67995584594E+00  4.75860892656E+00
  4.83858387684E+00  4.91990291255E+00  5.00258862285E+00  5.08666397651E+00
  5.17215232834E+00  5.25907742566E+00  5.34746341488E+00  5.43733484824E+00
  5.52871669060E+00  5.62163432639E+00  5.71611356667E+00  5.81218065628E+00
  5.90986228113E+00  6.00918557565E+00  6.11017813026E+00  6.21286799912E+00
  6.31728370784E+00  6.42345426145E+00  6.53140915247E+00  6.64117836906E+00
  6.75279240336E+00  6.86628226000E+00  6.98167946467E+00  7.09901607288E+00
  7.21832467890E+00  7.33963842477E+00  7.46299100953E+00  7.58841669858E+00
  7.71595033321E+00  7.84562734023E+00  7.97748374188E+00  8.11155616577E+00
  8.24788185512E+00  8.38649867904E+00  8.52744514311E+00  8.67076040001E+00
  8.81648426047E+00  8.96465720428E+00  9.11532039154E+00  9.26851567409E+00
  9.42428560718E+00  9.58267346123E+00  9.74372323388E+00  9.90747966222E+00
  1.00739882352E+01  1.02432952063E+01  1.04154476062E+01  1.05904932563E+01
  1.07684807814E+01  1.09494596236E+01  1.11334800561E+01  1.13205931968E+01
  1.15108510227E+01  1.17043063845E+01  1.19010130210E+01  1.21010255742E+01
  1.23043996045E+01  1.25111916060E+01  1.27214590221E+01  1.29352602619E+01
  1.31526547160E+01  1.33737027731E+01  1.35984658368E+01  1.38270063429E+01
  1.40593877762E+01  1.42956746887E+01  1.45359327171E+01  1.47802286013E+01
  1.50286302028E+01  1.52812065238E+01  1.55380277258E+01  1.57991651498E+01
  1.60646913356E+01  1.63346800422E+01  1.66092062682E+01  1.68883462727E+01
  1.71721775963E+01  1.74607790829E+01  1.77542309015E+01  1.80526145682E+01
  1.83560129695E+01  1.86645103845E+01  1.89781925090E+01  1.92971464789E+01
  1.96214608946E+01  1.99512258456E+01  2.02865329352E+01  2.06274753066E+01
  2.09741476681E+01  2.13266463199E+01  2.16850691805E+01  2.20495158140E+01
  2.24200874581E+01  2.27968870517E+01  2.31800192638E+01  2.35695905224E+01
  2.39657090442E+01  2.43684848648E+01  2.47780298690E+01  2.51944578217E+01
  2.56178844003E+01  2.60484272258E+01  2.64862058963E+01  2.69313420197E+01
  2.73839592479E+01  2.78441833108E+01  2.83121420513E+01  2.87879654611E+01
  2.92717857163E+01  2.97637372145E+01  3.02639566121E+01  3.07725828622E+01
  3.12897572531E+01  3.18156234477E+01  3.23503275233E+01  3.28940180122E+01
  3.34468459431E+01  3.40089648829E+01  3.45805309793E+01  3.51617030044E+01
  3.57526423985E+01  3.63535133153E+01  3.69644826672E+01  3.75857201720E+01
  3.82173983995E+01  3.88596928200E+01  3.95127818527E+01  4.01768469155E+01
  4.08520724751E+01  4.15386460985E+01  4.22367585052E+01  4.29466036195E+01
  4.36683786254E+01  4.44022840205E+01  4.51485236721E+01  4.59073048739E+01
  4.66788384032E+01  4.74633385799E+01  4.82610233258E+01  4.90721142251E+01
  4.98968365860E+01  5.07354195034E+01  5.15880959223E+01  5.24551027029E+01
  5.33366806858E+01  5.42330747596E+01  5.51445339284E+01  5.60713113810E+01
  5.70136645618E+01  5.79718552414E+01  5.89461495902E+01  5.99368182517E+01
  6.09441364180E+01  6.19683839062E+01  6.30098452361E+01  6.40688097092E+01
  6.51455714891E+01  6.62404296833E+01  6.73536884259E+01  6.84856569628E+01
  6.96366497369E+01  7.08069864759E+01  7.19969922807E+01  7.32069977163E+01
  7.44373389030E+01  7.56883576101E+01  7.69604013510E+01  7.82538234793E+01
  7.95689832871E+01  8.09062461052E+01  8.22659834041E+01  8.36485728972E+01
  8.50543986461E+01  8.64838511670E+01  8.79373275393E+01  8.94152315157E+01
  9.09179736346E+01  9.24459713340E+01  9.39996490676E+01  9.55794384225E+01
  9.71857782393E+01  9.88191147337E+01  1.00479901621E+02  1.02168600241E+02
  1.03885679688E+02  1.05631616940E+02  1.07406896990E+02  1.09212012983E+02
  1.11047466352E+02  1.12913766957E+02  1.14811433226E+02  1.16740992301E+02
  1.18702980184E+02  1.20697941883E+02  1.22726431568E+02  1.24789012720E+02
  1.26886258293E+02  1.29018750868E+02  1.31187082818E+02  1.33391856470E+02
  1.35633684277E+02  1.37913188983E+02  1.40231003799E+02  1.42587772575E+02
  1.44984149987E+02  1.47420801709E+02  1.49898404604E+02  1.52417646913E+02
  1.54979228440E+02
  </PP_R>
  <PP_RAB>
  1.94846573836E-07  1.98121229731E-07  2.01450920574E-07  2.04836571302E-07
  2.08279122395E-07  2.11779530138E-07  2.15338766891E-07  2.18957821352E-07
  2.22637698838E-07  2.26379421561E-07  2.30184028913E-07  2.34052577752E-07
  2.37986142702E-07  2.41985816443E-07  2.46052710023E-07  2.50187953161E-07
  2.54392694560E-07  2.58668102233E-07  2.63015363819E-07  2.67435686920E-07
  2.71930299432E-07  2.76500449886E-07  2.81147407799E-07  2.85872464021E-07
  2.90676931100E-07  2.95562143640E-07  3.00529458675E-07  3.05580256049E-07
  3.10715938791E-07  3.15937933515E-07  3.21247690807E-07  3.26646685635E-07
  3.32136417753E-07  3.37718412123E-07  3.43394219335E-07  3.49165416038E-07
  3.55033605379E-07  3.61000417449E-07  3.67067509735E-07  3.73236567577E-07
  3.79509304644E-07  3.85887463403E-07  3.92372815604E-07  3.98967162778E-07
  4.05672336729E-07  4.12490200049E-07  4.19422646632E-07  4.26471602203E-07
  4.33639024850E-07  4.40926905570E-07  4.48337268821E-07  4.55872173085E-07
  4.63533711440E-07  4.71324012139E-07  4.79245239206E-07  4.87299593033E-07
  4.95489310990E-07  5.03816668053E-07  5.12283977431E-07  5.20893591207E-07
  5.29647900997E-07  5.38549338610E-07  5.47600376724E-07  5.56803529574E-07
  5.66161353653E-07  5.75676448414E-07  5.85351457002E-07  5.95189066980E-07
  6.05192011082E-07  6.15363067968E-07  6.25705062995E-07  6.36220869008E-07
  6.46913407132E-07  6.57785647583E-07  6.68840610500E-07  6.80081366776E-07
  6.91511038915E-07  7.03132801901E-07  7.14949884075E-07  7.26965568036E-07
  7.39183191552E-07  7.51606148485E-07  7.64237889737E-07  7.77081924206E-07
  7.90141819761E-07  8.03421204236E-07  8.16923766434E-07  8.30653257153E-07
  8.44613490229E-07  8.58808343595E-07  8.73241760356E-07  8.87917749887E-07
  9.02840388948E-07  9.18013822810E-07  9.33442266416E-07  9.49130005542E-07
  9.65081397994E-07  9.81300874818E-07  9.97792941529E-07  1.01456217936E-06
  1.03161324655E-06  1.04895087960E-06  1.06657989464E-06  1.08450518873E-06
  1.10273174124E-06  1.12126461521E-06  1.14010895878E-06  1.15927000662E-06
  1.17875308136E-06  1.19856359509E-06  1.21870705086E-06  1.23918904420E-06
  1.26001526468E-06  1.28119149751E-06  1.30272362511E-06  1.32461762876E-06
  1.34687959026E-06  1.36951569364E-06  1.39253222686E-06  1.41593558354E-06
  1.43973226476E-06  1.46392888087E-06  1.48853215331E-06  1.51354891646E-06
  1.53898611961E-06  1.56485082880E-06  1.59115022883E-06  1.61789162527E-06
  1.64508244645E-06  1.67273024556E-06  1.70084270272E-06  1.72942762711E-06
  1.75849295919E-06  1.78804677285E-06  1.81809727766E-06  1.84865282118E-06
  1.87972189126E-06  1.91131311840E-06  1.94343527814E-06  1.97609729351E-06
  2.00930823750E-06  2.04307733559E-06  2.07741396829E-06  2.11232767379E-06
  2.14782815056E-06  2.18392526007E-06  2.22062902953E-06  2.25794965467E-06
  2.29589750256E-06  2.33448311452E-06  2.37371720903E-06  2.41361068468E-06
  2.45417462328E-06  2.49542029282E-06  2.53735915071E-06  2.58000284691E-06
  2.62336322715E-06  2.66745233627E-06  2.71228242152E-06  2.75786593600E-06
  2.80421554208E-06  2.85134411496E-06  2.89926474620E-06  2.94799074740E-06
  2.99753565388E-06  3.04791322842E-06  3.09913746512E-06  3.15122259328E-06
  3.20418308130E-06  3.25803364078E-06  3.31278923056E-06  3.36846506087E-06
  3.42507659757E-06  3.48263956647E-06  3.54116995764E-06  3.60068402990E-06
  3.66119831533E-06  3.72272962382E-06  3.78529504782E-06  3.84891196700E-06
  3.91359805315E-06  3.97937127503E-06  4.04624990341E-06  4.11425251611E-06
  4.18339800319E-06  4.25370557217E-06  4.32519475338E-06  4.39788540539E-06
  4.47179772051E-06  4.54695223042E-06  4.62336981186E-06  4.70107169241E-06
  4.78007945645E-06  4.86041505106E-06  4.94210079223E-06  5.02515937094E-06
  5.10961385957E-06  5.19548771824E-06  5.28280480135E-06  5.37158936421E-06
  5.46186606977E-06  5.55365999546E-06  5.64699664020E-06  5.74190193142E-06
  5.83840223233E-06  5.93652434917E-06  6.03629553873E-06  6.13774351586E-06
  6.24089646122E-06  6.34578302905E-06  6.45243235520E-06  6.56087406515E-06
  6.67113828231E-06  6.78325563634E-06  6.89725727166E-06  7.01317485612E-06
  7.13104058981E-06  7.25088721396E-06  7.37274802007E-06  7.49665685915E-06
  7.62264815112E-06  7.75075689437E-06  7.88101867548E-06  8.01346967912E-06
  8.14814669809E-06  8.28508714353E-06  8.42432905534E-06  8.56591111273E-06
  8.70987264495E-06  8.85625364224E-06  9.00509476694E-06  9.15643736475E-06
  9.31032347627E-06  9.46679584861E-06  9.62589794734E-06  9.78767396851E-06
  9.95216885094E-06  1.01194282887E-05  1.02894987438E-05  1.04624274592E-05
  1.06382624718E-05  1.08170526256E-05  1.09988475858E-05  1.11836978522E-05
  1.13716547733E-05  1.15627705604E-05  1.17570983027E-05  1.19546919811E-05
  1.21556064842E-05  1.23598976228E-05  1.25676221458E-05  1.27788377558E-05
  1.29936031250E-05  1.32119779121E-05  1.34340227779E-05  1.36597994031E-05
  1.38893705049E-05  1.41227998545E-05  1.43601522948E-05  1.46014937587E-05
  1.48468912869E-05  1.50964130471E-05  1.53501283524E-05  1.56081076810E-05
  1.58704226954E-05  1.61371462626E-05  1.64083524741E-05  1.66841166669E-05
  1.69645154438E-05  1.72496266952E-05  1.75395296205E-05  1.78343047501E-05
  1.81340339680E-05  1.84388005341E-05  1.87486891078E-05  1.90637857712E-05
  1.93841780533E-05  1.97099549539E-05  2.00412069688E-05  2.03780261144E-05
  2.07205059539E-05  2.10687416228E-05  2.14228298553E-05  2.17828690117E-05
  2.21489591050E-05  2.25212018295E-05  2.28997005881E-05  2.32845605219E-05
  2.36758885390E-05  2.40737933439E-05  2.44783854685E-05  2.48897773020E-05
  2.53080831226E-05  2.57334191290E-05  2.61659034729E-05  2.66056562915E-05
  2.70527997413E-05  2.75074580316E-05  2.79697574593E-05  2.84398264440E-05
  2.89177955634E-05  2.94037975897E-05  2.98979675266E-05  3.04004426467E-05
  3.09113625297E-05  3.14308691011E-05  3.19591066715E-05  3.24962219771E-05
  3.30423642199E-05  3.35976851097E-05  3.41623389059E-05  3.47364824603E-05
  3.53202752610E-05  3.59138794764E-05  3.65174600003E-05  3.71311844980E-05
  3.77552234523E-05  3.83897502114E-05  3.90349410369E-05  3.96909751526E-05
  4.03580347944E-05  4.10363052608E-05  4.17259749649E-05  4.24272354858E-05
  4.31402816228E-05  4.38653114487E-05  4.46025263654E-05  4.53521311596E-05
  4.61143340595E-05  4.68893467933E-05  4.76773846471E-05  4.84786665254E-05
  4.92934150117E-05  5.01218564303E-05  5.09642209090E-05  5.18207424435E-05
  5.26916589619E-05  5.35772123910E-05  5.44776487236E-05  5.53932180867E-05
  5.63241748111E-05  5.72707775017E-05  5.82332891098E-05  5.92119770061E-05
  6.02071130545E-05  6.12189736881E-05  6.22478399858E-05  6.32939977504E-05
  6.43577375881E-05  6.54393549889E-05  6.65391504091E-05  6.76574293545E-05
  6.87945024653E-05  6.99506856025E-05  7.11262999355E-05  7.23216720314E-05
  7.35371339456E-05  7.47730233143E-05  7.60296834482E-05  7.73074634273E-05
  7.86067181990E-05  7.99278086757E-05  8.12711018353E-05  8.26369708236E-05
  8.40257950574E-05  8.54379603301E-05  8.68738589189E-05  8.83338896939E-05
  8.98184582284E-05  9.13279769121E-05  9.28628650656E-05  9.44235490565E-05
  9.60104624182E-05  9.76240459701E-05  9.92647479404E-05  1.00933024090E-04
  1.02629337840E-04  1.04354160399E-04  1.06107970896E-04  1.07891256511E-04
  1.09704512614E-04  1.11548242898E-04  1.13422959522E-04  1.15329183253E-04
  1.17267443610E-04  1.19238279011E-04  1.21242236922E-04  1.23279874013E-04
  1.25351756306E-04  1.27458459337E-04  1.29600568315E-04  1.31778678284E-04
  1.33993394289E-04  1.36245331543E-04  1.38535115599E-04  1.40863382521E-04
  1.43230779067E-04  1.45637962862E-04  1.48085602583E-04  1.50574378145E-04
  1.53104980892E-04  1.55678113784E-04  1.58294491599E-04  1.60954841123E-04
  1.63659901360E-04  1.66410423733E-04  1.69207172294E-04  1.72050923935E-04
  1.74942468606E-04  1.77882609532E-04  1.80872163438E-04  1.83911960775E-04
  1.87002845949E-04  1.90145677562E-04  1.93341328640E-04  1.96590686887E-04
  1.99894654921E-04  2.03254150534E-04  2.06670106941E-04  2.10143473039E-04
  2.13675213675E-04  2.17266309912E-04  2.20917759298E-04  2.24630576149E-04
  2.28405791826E-04  2.32244455026E-04  2.36147632067E-04  2.40116407192E-04
  2.44151882862E-04  2.48255180070E-04  2.52427438647E-04  2.56669817579E-04
  2.60983495333E-04  2.65369670181E-04  2.69829560533E-04  2.74364405275E-04
  2.78975464116E-04  2.83664017936E-04  2.88431369140E-04  2.93278842024E-04
  2.98207783138E-04  3.03219561665E-04  3.08315569798E-04  3.13497223127E-04
  3.18765961034E-04  3.24123247091E-04  3.29570569468E-04  3.35109441344E-04
  3.40741401331E-04  3.46468013898E-04  3.52290869808E-04  3.58211586558E-04
  3.64231808830E-04  3.70353208946E-04  3.76577487335E-04  3.82906373003E-04
  3.89341624015E-04  3.95885027981E-04  4.02538402557E-04  4.09303595943E-04
  4.16182487405E-04  4.23176987789E-04  4.30289040058E-04  4.37520619827E-04
  4.44873735914E-04  4.52350430900E-04  4.59952781692E-04  4.67682900103E-04
  4.75542933439E-04  4.83535065091E-04  4.91661515148E-04  4.99924541010E-04
  5.08326438014E-04  5.16869540076E-04  5.25556220333E-04  5.34388891808E-04
  5.43370008079E-04  5.52502063956E-04  5.61787596182E-04  5.71229184131E-04
  5.80829450525E-04  5.90591062169E-04  6.00516730683E-04  6.10609213261E-04
  6.20871313436E-04  6.31305881857E-04  6.41915817083E-04  6.52704066385E-04
  6.63673626569E-04  6.74827544806E-04  6.86168919477E-04  6.97700901039E-04
  7.09426692892E-04  7.21349552278E-04  7.33472791178E-04  7.45799777235E-04
  7.58333934694E-04  7.71078745343E-04  7.84037749491E-04  7.97214546945E-04