<PP_INFO>
Generated using unknown code
Author: X. Gonze et al.   Generation date: 1990
Info:  Sb BHS modified for use as KB with l=2 as local part
    1        The Pseudo was generated with a Scalar-Relativistic Calculation
  0.00000000000E+00    Local Potential cutoff radius
nl pn  l   occ               Rcut            Rcut US             E pseu
5S  0  0  2.00      0.00000000000      0.00000000000      0.00000000000
5P  0  1  3.00      0.00000000000      0.00000000000      0.00000000000
</PP_INFO>


<PP_HEADER>
   0                   Version Number
  Sb                   Element
   NC                  Norm - Conserving pseudopotential
    F                  Nonlinear Core Correction
 SLA  PZ   NOGX NOGC   PZ   Exchange-Correlation functional
    5.00000000000      Z valence
    0.00000000000      Total energy
  0.0000000  0.0000000 Suggested cutoff for wfc and rho
    1                  Max angular momentum component
  603                  Number of points in mesh
    2    2             Number of Wavefunctions, Number of Projectors
 Wavefunctions         nl  l   occ
                       5S  0  2.00
                       5P  1  3.00
</PP_HEADER>


<PP_MESH>
  <PP_R>
  1.78800385403E-05  1.83326738709E-05  1.87967677195E-05  1.92726101598E-05
  1.97604986088E-05  2.02607380127E-05  2.07736410374E-05  2.12995282640E-05
  2.18387283891E-05  2.23915784304E-05  2.29584239371E-05  2.35396192061E-05
  2.41355275034E-05  2.47465212911E-05  2.53729824601E-05  2.60153025692E-05
  2.66738830892E-05  2.73491356544E-05  2.80414823198E-05  2.87513558244E-05
  2.94791998623E-05  3.02254693598E-05  3.09906307595E-05  3.17751623123E-05
  3.25795543760E-05  3.34043097216E-05  3.42499438483E-05  3.51169853047E-05
  3.60059760202E-05  3.69174716427E-05  3.78520418868E-05  3.88102708893E-05
  3.97927575744E-05  4.08001160284E-05  4.18329758831E-05  4.28919827095E-05
  4.39777984213E-05  4.50911016887E-05  4.62325883626E-05  4.74029719091E-05
  4.86029838562E-05  4.98333742504E-05  5.10949121257E-05  5.23883859843E-05
  5.37146042896E-05  5.50743959711E-05  5.64686109429E-05  5.78981206348E-05
  5.93638185368E-05  6.08666207578E-05  6.24074665982E-05  6.39873191368E-05
  6.56071658328E-05  6.72680191431E-05  6.89709171551E-05  7.07169242356E-05
  7.25071316957E-05  7.43426584735E-05  7.62246518329E-05  7.81542880809E-05
  8.01327733032E-05  8.21613441173E-05  8.42412684461E-05  8.63738463100E-05
  8.85604106395E-05  9.08023281085E-05  9.31009999885E-05  9.54578630241E-05
  9.78743903316E-05  1.00352092319E-04  1.02892517631E-04  1.05497254116E-04
  1.08167929819E-04  1.10906213999E-04  1.13713818173E-04  1.16592497186E-04
  1.19544050304E-04  1.22570322346E-04  1.25673204829E-04  1.28854637155E-04
  1.32116607825E-04  1.35461155676E-04  1.38890371158E-04  1.42406397643E-04
  1.46011432763E-04  1.49707729782E-04  1.53497599004E-04  1.57383409223E-04
  1.61367589196E-04  1.65452629166E-04  1.69641082414E-04  1.73935566861E-04
  1.78338766700E-04  1.82853434073E-04  1.87482390795E-04  1.92228530114E-04
  1.97094818522E-04  2.02084297608E-04  2.07200085958E-04  2.12445381107E-04
  2.17823461534E-04  2.23337688716E-04  2.28991509223E-04  2.34788456879E-04
  2.40732154962E-04  2.46826318479E-04  2.53074756480E-04  2.59481374442E-04
  2.66050176710E-04  2.72785268999E-04  2.79690860961E-04  2.86771268816E-04
  2.94030918049E-04  3.01474346177E-04  3.09106205585E-04  3.16931266435E-04
  3.24954419642E-04  3.33180679941E-04  3.41615189010E-04  3.50263218692E-04
  3.59130174289E-04  3.68221597935E-04  3.77543172066E-04  3.87100722970E-04
  3.96900224428E-04  4.06947801445E-04  4.17249734086E-04  4.27812461393E-04
  4.38642585415E-04  4.49746875332E-04  4.61132271686E-04  4.72805890722E-04
  4.84775028830E-04  4.97047167112E-04  5.09629976054E-04  5.22531320321E-04
  5.35759263672E-04  5.49322074004E-04  5.63228228514E-04  5.77486419002E-04
  5.92105557300E-04  6.07094780847E-04  6.22463458393E-04  6.38221195865E-04
  6.54377842359E-04  6.70943496307E-04  6.87928511781E-04  7.05343504969E-04
  7.23199360809E-04  7.41507239791E-04  7.60278584936E-04  7.79525128946E-04
  7.99258901537E-04  8.19492236959E-04  8.40237781707E-04  8.61508502420E-04
  8.83317693991E-04  9.05678987876E-04  9.28606360611E-04  9.52114142549E-04
  9.76217026821E-04  1.00093007851E-03  1.02626874409E-03  1.05224886103E-03
  1.07888666777E-03  1.10619881380E-03  1.13420237009E-03  1.16291483979E-03
  1.19235416912E-03  1.22253875862E-03  1.25348747464E-03  1.28521966114E-03
  1.31775515176E-03  1.35111428225E-03  1.38531790315E-03  1.42038739283E-03
  1.45634467087E-03  1.49321221174E-03  1.53101305885E-03  1.56977083896E-03
  1.60950977694E-03  1.65025471093E-03  1.69203110783E-03  1.73486507926E-03
  1.77878339783E-03  1.82381351393E-03  1.86998357285E-03  1.91732243238E-03
  1.96585968084E-03  2.01562565559E-03  2.06665146200E-03  2.11896899284E-03
  2.17261094828E-03  2.22761085629E-03  2.28400309360E-03  2.34182290719E-03
  2.40110643633E-03  2.46189073516E-03  2.52421379584E-03  2.58811457231E-03
  2.65363300464E-03  2.72081004398E-03  2.78968767817E-03  2.86030895797E-03
  2.93271802397E-03  3.00696013421E-03  3.08308169242E-03  3.16113027705E-03
  3.24115467101E-03  3.32320489215E-03  3.40733222452E-03  3.49358925045E-03
  3.58202988339E-03  3.67270940161E-03  3.76568448276E-03  3.86101323930E-03
  3.95875525480E-03  4.05897162120E-03  4.16172497699E-03  4.26707954638E-03
  4.37510117938E-03  4.48585739304E-03  4.59941741360E-03  4.71585221977E-03
  4.83523458709E-03  4.95763913343E-03  5.08314236561E-03  5.21182272723E-03
  5.34376064773E-03  5.47903859258E-03  5.61774111491E-03  5.75995490830E-03
  5.90576886102E-03  6.05527411153E-03  6.20856410547E-03  6.36573465409E-03
  6.52688399408E-03  6.69211284904E-03  6.86152449238E-03  7.03522481188E-03
  7.21332237591E-03  7.39592850124E-03  7.58315732264E-03  7.77512586422E-03
  7.97195411256E-03  8.17376509174E-03  8.38068494017E-03  8.59284298951E-03
  8.81037184544E-03  9.03340747057E-03  9.26208926943E-03  9.49656017560E-03
  9.73696674101E-03  9.98345922760E-03  1.02361917012E-02  1.04953221278E-02
  1.07610124724E-02  1.10334288001E-02  1.13127413800E-02  1.15991247915E-02
  1.18927580336E-02  1.21938246366E-02  1.25025127769E-02  1.28190153947E-02
  1.31435303144E-02  1.34762603685E-02  1.38174135239E-02  1.41672030126E-02
  1.45258474643E-02  1.48935710436E-02  1.52706035896E-02  1.56571807600E-02
  1.60535441780E-02  1.64599415837E-02  1.68766269887E-02  1.73038608350E-02
  1.77419101576E-02  1.81910487515E-02  1.86515573432E-02  1.91237237653E-02
  1.96078431373E-02  2.01042180495E-02  2.06131587525E-02  2.11349833507E-02
  2.16700180015E-02  2.22185971190E-02  2.27810635829E-02  2.33577689532E-02
  2.39490736894E-02  2.45553473763E-02  2.51769689547E-02  2.58143269582E-02
  2.64678197564E-02  2.71378558035E-02  2.78248538940E-02  2.85292434239E-02
  2.92514646596E-02  2.99919690130E-02  3.07512193233E-02  3.15296901468E-02
  3.23278680529E-02  3.31462519290E-02  3.39853532915E-02  3.48456966062E-02
  3.57278196155E-02  3.66322736751E-02  3.75596240983E-02  3.85104505092E-02
  3.94853472053E-02  4.04849235288E-02  4.15098042473E-02  4.25606299448E-02
  4.36380574214E-02  4.47427601045E-02  4.58754284691E-02  4.70367704699E-02
  4.82275119835E-02  4.94483972619E-02  5.07001893983E-02  5.19836708036E-02
  5.32996436953E-02  5.46489305993E-02  5.60323748640E-02  5.74508411869E-02
  5.89052161558E-02  6.03964088023E-02  6.19253511704E-02  6.34929988988E-02
  6.51003318184E-02  6.67483545645E-02  6.84380972051E-02  7.01706158843E-02
  7.19469934827E-02  7.37683402941E-02  7.56357947195E-02  7.75505239788E-02
  7.95137248401E-02  8.15266243678E-02  8.35904806896E-02  8.57065837829E-02
  8.78762562811E-02  9.01008543001E-02  9.23817682861E-02  9.47204238845E-02
  9.71182828313E-02  9.95768438663E-02  1.02097643670E-01  1.04682257825E-01
  1.07332301799E-01  1.10049431955E-01  1.12835346588E-01  1.15691786987E-01
  1.18620538518E-01  1.21623431747E-01  1.24702343580E-01  1.27859198438E-01
  1.31095969456E-01  1.34414679724E-01  1.37817403541E-01  1.41306267722E-01
  1.44883452920E-01  1.48551194993E-01  1.52311786398E-01  1.56167577628E-01
  1.60120978678E-01  1.64174460552E-01  1.68330556807E-01  1.72591865141E-01
  1.76961049009E-01  1.81440839292E-01  1.86034036007E-01  1.90743510050E-01
  1.95572204996E-01  2.00523138937E-01  2.05599406367E-01  2.10804180119E-01
  2.16140713346E-01  2.21612341555E-01  2.27222484691E-01  2.32974649276E-01
  2.38872430602E-01  2.44919514973E-01  2.51119682013E-01  2.57476807029E-01
  2.63994863431E-01  2.70677925217E-01  2.77530169517E-01  2.84555879208E-01
  2.91759445586E-01  2.99145371115E-01  3.06718272239E-01  3.14482882268E-01
  3.22444054335E-01  3.30606764433E-01  3.38976114521E-01  3.47557335715E-01
  3.56355791558E-01  3.65376981371E-01  3.74626543691E-01  3.84110259796E-01
  3.93834057317E-01  4.03804013945E-01  4.14026361226E-01  4.24507488461E-01
  4.35253946695E-01  4.46272452814E-01  4.57569893744E-01  4.69153330752E-01
  4.81030003865E-01  4.93207336389E-01  5.05692939553E-01  5.18494617266E-01
  5.31620370993E-01  5.45078404758E-01  5.58877130270E-01  5.73025172181E-01
  5.87531373478E-01  6.02404801010E-01  6.17654751152E-01  6.33290755620E-01
  6.49322587425E-01  6.65760266985E-01  6.82614068384E-01  6.99894525797E-01
  7.17612440072E-01  7.35778885482E-01  7.54405216648E-01  7.73503075631E-01
  7.93084399217E-01  8.13161426369E-01  8.33746705884E-01  8.54853104230E-01
  8.76493813594E-01  8.98682360124E-01  9.21432612384E-01  9.44758790022E-01
  9.68675472657E-01  9.93197608997E-01  1.01834052617E+00  1.04411993933E+00
  1.07055196143E+00  1.09765311337E+00  1.12544033422E+00  1.15393099193E+00
  1.18314289407E+00  1.21309429903E+00  1.24380392741E+00  1.27529097375E+00
  1.30757511845E+00  1.34067654017E+00  1.37461592837E+00  1.40941449627E+00
  1.44509399411E+00  1.48167672274E+00  1.51918554755E+00  1.55764391279E+00
  1.59707585618E+00  1.63750602396E+00  1.67895968632E+00  1.72146275313E+00
  1.76504179021E+00  1.80972403586E+00  1.85553741794E+00  1.90251057131E+00
  1.95067285572E+00  2.00005437417E+00  2.05068599171E+00  2.10259935475E+00
  2.15582691083E+00  2.21040192890E+00  2.26635852014E+00  2.32373165923E+00
  2.38255720625E+00  2.44287192908E+00  2.50471352639E+00  2.56812065119E+00
  2.63313293500E+00  2.69979101261E+00  2.76813654748E+00  2.83821225781E+00
  2.91006194319E+00  2.98373051201E+00  3.05926400954E+00  3.13670964665E+00
  3.21611582941E+00  3.29753218925E+00  3.38100961406E+00  3.46660027993E+00
  3.55435768383E+00  3.64433667698E+00  3.73659349919E+00  3.83118581397E+00
  3.92817274460E+00  4.02761491107E+00  4.12957446797E+00  4.23411514335E+00
  4.34130227851E+00  4.45120286893E+00  4.56388560603E+00  4.67942092021E+00
  4.79788102479E+00  4.91933996119E+00  5.04387364521E+00  5.17155991445E+00
  5.30247857698E+00  5.43671146124E+00  5.57434246714E+00  5.71545761854E+00
  5.86014511700E+00  6.00849539693E+00  6.16060118207E+00  6.31655754350E+00
  6.47646195901E+00  6.64041437408E+00  6.80851726429E+00  6.98087569943E+00
  7.15759740912E+00  7.33879285020E+00  7.52457527571E+00  7.71506080571E+00
  7.91036849986E+00  8.11062043182E+00  8.31594176558E+00  8.52646083365E+00
  8.74230921730E+00  8.96362182880E+00  9.19053699573E+00  9.42319654746E+00
  9.66174590379E+00  9.90633416582E+00  1.01571142092E+01  1.04142427796E+01
  1.06778805907E+01  1.09481924248E+01  1.12253472356E+01  1.15095182538E+01
  1.18008830955E+01  1.20996238734E+01  1.24059273100E+01  1.27199848551E+01
  1.30419928048E+01  1.33721524245E+01  1.37106700748E+01  1.40577573402E+01
  1.44136311616E+01  1.47785139717E+01  1.51526338340E+01  1.55362245858E+01
  1.59295259837E+01  1.63327838539E+01  1.67462502456E+01  1.71701835889E+01
  1.76048488559E+01  1.80505177265E+01  1.85074687583E+01  1.89759875605E+01
  1.94563669726E+01  1.99489072475E+01  2.04539162388E+01  2.09717095936E+01
  2.15026109496E+01  2.20469521374E+01  2.26050733879E+01  2.31773235452E+01
  2.37640602842E+01  2.43656503344E+01  2.49824697093E+01  2.56149039410E+01
  2.62633483215E+01  2.69282081496E+01  2.76098989844E+01  2.83088469049E+01
  2.90254887762E+01  2.97602725228E+01  3.05136574086E+01  3.12861143235E+01
  3.20781260784E+01  3.28901877062E+01  3.37228067721E+01  3.45765036899E+01
  3.54518120482E+01  3.63492789430E+01  3.72694653204E+01  3.82129463269E+01
  3.91803116687E+01  4.01721659808E+01  4.11891292043E+01  4.22318369744E+01
  4.33009410174E+01  4.43971095581E+01  4.55210277375E+01  4.66733980410E+01
  4.78549407377E+01  4.90663943302E+01  5.03085160164E+01  5.15820821627E+01
  5.28878887896E+01  5.42267520686E+01  5.55995088328E+01  5.70070171000E+01
  5.84501566087E+01  5.99298293679E+01  6.14469602213E+01
  </PP_R>
  <PP_RAB>
  4.47000963507E-07  4.58316846773E-07  4.69919192987E-07  4.81815253994E-07
  4.94012465220E-07  5.06518450317E-07  5.19341025935E-07  5.32488206600E-07
  5.45968209728E-07  5.59789460760E-07  5.73960598427E-07  5.88490480153E-07
  6.03388187585E-07  6.18663032277E-07  6.34324561503E-07  6.50382564229E-07
  6.66847077229E-07  6.83728391361E-07  7.01037057994E-07  7.18783895609E-07
  7.36979996558E-07  7.55636733995E-07  7.74765768988E-07  7.94379057808E-07
  8.14488859399E-07  8.35107743040E-07  8.56248596206E-07  8.77924632618E-07
  9.00149400504E-07  9.22936791068E-07  9.46301047170E-07  9.70256772232E-07
  9.94818939361E-07  1.02000290071E-06  1.04582439708E-06  1.07229956774E-06
  1.09944496053E-06  1.12727754222E-06  1.15581470906E-06  1.18507429773E-06
  1.21507459641E-06  1.24583435626E-06  1.27737280314E-06  1.30970964961E-06
  1.34286510724E-06  1.37685989928E-06  1.41171527357E-06  1.44745301587E-06
  1.48409546342E-06  1.52166551895E-06  1.56018666496E-06  1.59968297842E-06
  1.64017914582E-06  1.68170047858E-06  1.72427292888E-06  1.76792310589E-06
  1.81267829239E-06  1.85856646184E-06  1.90561629582E-06  1.95385720202E-06
  2.00331933258E-06  2.05403360293E-06  2.10603171115E-06  2.15934615775E-06
  2.21401026599E-06  2.27005820271E-06  2.32752499971E-06  2.38644657560E-06
  2.44685975829E-06  2.50880230798E-06  2.57231294078E-06  2.63743135290E-06
  2.70419824547E-06  2.77265534998E-06  2.84284545433E-06  2.91481242964E-06
  2.98860125761E-06  3.06425805864E-06  3.14183012071E-06  3.22136592889E-06
  3.30291519563E-06  3.38652889189E-06  3.47225927895E-06  3.56015994109E-06
  3.65028581908E-06  3.74269324454E-06  3.83743997511E-06  3.93458523059E-06
  4.03418972991E-06  4.13631572914E-06  4.24102706035E-06  4.34838917153E-06
  4.45846916750E-06  4.57133585183E-06  4.68705976987E-06  4.80571325285E-06
  4.92737046306E-06  5.05210744020E-06  5.18000214895E-06  5.31113452766E-06
  5.44558653835E-06  5.58344221790E-06  5.72478773059E-06  5.86971142196E-06
  6.01830387405E-06  6.17065796198E-06  6.32686891200E-06  6.48703436105E-06
  6.65125441775E-06  6.81963172497E-06  6.99227152402E-06  7.16928172039E-06
  7.35077295121E-06  7.53685865442E-06  7.72765513963E-06  7.92328166087E-06
  8.12386049106E-06  8.32951699851E-06  8.54037972524E-06  8.75658046731E-06
  8.97825435722E-06  9.20553994837E-06  9.43857930166E-06  9.67751807426E-06
  9.92250561069E-06  1.01736950361E-05  1.04312433521E-05  1.06953115348E-05
  1.09660646354E-05  1.12436718833E-05  1.15283067922E-05  1.18201472680E-05
  1.21193757208E-05  1.24261791778E-05  1.27407494014E-05  1.30632830080E-05
  1.33939815918E-05  1.37330518501E-05  1.40807057129E-05  1.44371604751E-05
  1.48026389325E-05  1.51773695212E-05  1.55615864598E-05  1.59555298966E-05
  1.63594460590E-05  1.67735874077E-05  1.71982127945E-05  1.76335876242E-05
  1.80799840202E-05  1.85376809948E-05  1.90069646234E-05  1.94881282236E-05
  1.99814725384E-05  2.04873059240E-05  2.10059445427E-05  2.15377125605E-05
  2.20829423498E-05  2.26419746969E-05  2.32151590153E-05  2.38028535637E-05
  2.44054256705E-05  2.50232519628E-05  2.56567186022E-05  2.63062215258E-05
  2.69721666943E-05  2.76549703450E-05  2.83550592524E-05  2.90728709948E-05
  2.98088542280E-05  3.05634689655E-05  3.13371868660E-05  3.21304915284E-05
  3.29438787940E-05  3.37778570562E-05  3.46329475786E-05  3.55096848207E-05
  3.64086167717E-05  3.73303052934E-05  3.82753264712E-05  3.92442709739E-05
  4.02377444235E-05  4.12563677732E-05  4.23007776958E-05  4.33716269814E-05
  4.44695849458E-05  4.55953378484E-05  4.67495893213E-05  4.79330608095E-05
  4.91464920210E-05  5.03906413898E-05  5.16662865499E-05  5.29742248210E-05
  5.43152737070E-05  5.56902714072E-05  5.71000773399E-05  5.85455726798E-05
  6.00276609083E-05  6.15472683790E-05  6.31053448960E-05  6.47028643078E-05
  6.63408251160E-05  6.80202510995E-05  6.97421919542E-05  7.15077239491E-05
  7.33179505993E-05  7.51740033554E-05  7.70770423106E-05  7.90282569264E-05
  8.10288667753E-05  8.30801223037E-05  8.51833056130E-05  8.73397312612E-05
  8.95507470847E-05  9.18177350402E-05  9.41421120690E-05  9.65253309824E-05
  9.89688813699E-05  1.01474290530E-04  1.04043124425E-04  1.06676988659E-04
  1.09377529485E-04  1.12146434826E-04  1.14985435340E-04  1.17896305494E-04
  1.20880864677E-04  1.23940978336E-04  1.27078559140E-04  1.30295568181E-04
  1.33594016193E-04  1.36975964814E-04  1.40443527873E-04  1.43998872708E-04
  1.47644221526E-04  1.51381852788E-04  1.55214102637E-04  1.59143366352E-04
  1.63172099852E-04  1.67302821226E-04  1.71538112309E-04  1.75880620297E-04
  1.80333059398E-04  1.84898212531E-04  1.89578933066E-04  1.94378146605E-04
  1.99298852814E-04  2.04344127293E-04  2.09517123504E-04  2.14821074738E-04
  2.20259296136E-04  2.25835186764E-04  2.31552231736E-04  2.37414004390E-04
  2.43424168525E-04  2.49586480690E-04  2.55904792530E-04  2.62383053196E-04
  2.69025311811E-04  2.75835720003E-04  2.82818534500E-04  2.89978119788E-04
  2.97318950840E-04  3.04845615914E-04  3.12562819422E-04  3.20475384868E-04
  3.28588257861E-04  3.36906509211E-04  3.45435338097E-04  3.54180075315E-04
  3.63146186609E-04  3.72339276091E-04  3.81765089741E-04  3.91429519000E-04
  4.01338604450E-04  4.11498539593E-04  4.21915674718E-04  4.32596520875E-04
  4.43547753939E-04  4.54776218789E-04  4.66288933579E-04  4.78093094132E-04
  4.90196078431E-04  5.02605451237E-04  5.15328968812E-04  5.28374583767E-04
  5.41750450037E-04  5.55464927974E-04  5.69526589573E-04  5.83944223830E-04
  5.98726842235E-04  6.13883684408E-04  6.29424223867E-04  6.45358173955E-04
  6.61695493910E-04  6.78446395089E-04  6.95621347350E-04  7.13231085597E-04
  7.31286616491E-04  7.49799225325E-04  7.68780483083E-04  7.88242253670E-04
  8.08196701324E-04  8.28656298225E-04  8.49633832288E-04  8.71142415154E-04
  8.93195490388E-04  9.15806841879E-04  9.38990602458E-04  9.62761262730E-04
  9.87133680133E-04  1.01212308822E-03  1.03774510618E-03  1.06401574862E-03
  1.09095143554E-03  1.11856900261E-03  1.14688571173E-03  1.17591926175E-03
  1.20568779959E-03  1.23620993155E-03  1.26750473496E-03  1.29959177009E-03
  1.33249109238E-03  1.36622326498E-03  1.40080937160E-03  1.43627102967E-03
  1.47263040390E-03  1.50991022006E-03  1.54813377926E-03  1.58732497247E-03
  1.62750829546E-03  1.66870886411E-03  1.71095243013E-03  1.75426539711E-03
  1.79867483707E-03  1.84420850735E-03  1.89089486799E-03  1.93876309947E-03
  1.98784312100E-03  2.03816560919E-03  2.08976201724E-03  2.14266459457E-03
  2.19690640703E-03  2.25252135750E-03  2.30954420715E-03  2.36801059711E-03
  2.42795707078E-03  2.48942109666E-03  2.55244109175E-03  2.61705644562E-03
  2.68330754496E-03  2.75123579887E-03  2.82088366471E-03  2.89229467467E-03
  2.96551346295E-03  3.04058579368E-03  3.11755858951E-03  3.19647996095E-03
  3.27739923641E-03  3.36036699309E-03  3.44543508852E-03  3.53265669305E-03
  3.62208632301E-03  3.71377987482E-03  3.80779465995E-03  3.90418944070E-03
  4.00302446694E-03  4.10436151379E-03  4.20826392019E-03  4.31479662852E-03
  4.42402622521E-03  4.53602098231E-03  4.65085090018E-03  4.76858775125E-03
  4.88930512491E-03  5.01307847343E-03  5.13998515918E-03  5.27010450298E-03
  5.40351783365E-03  5.54030853886E-03  5.68056211727E-03  5.82436623191E-03
  5.97181076505E-03  6.12298787432E-03  6.27799205033E-03  6.43692017573E-03
  6.59987158579E-03  6.76694813043E-03  6.93825423793E-03  7.11389698019E-03
  7.29398613964E-03  7.47863427787E-03  7.66795680597E-03  7.86207205669E-03
  8.06110135838E-03  8.26516911083E-03  8.47440286302E-03  8.68893339287E-03
  8.90889478894E-03  9.13442453426E-03  9.36566359227E-03  9.60275649490E-03
  9.84585143294E-03  1.00951003486E-02  1.03506590307E-02  1.06126872115E-02
  1.08813486674E-02  1.11568113204E-02  1.14392473436E-02  1.17288332688E-02
  1.20257500966E-02  1.23301834097E-02  1.26423234888E-02  1.29623654316E-02
  1.32905092748E-02  1.36269601190E-02  1.39719282567E-02  1.43256293045E-02
  1.46882843370E-02  1.50601200252E-02  1.54413687788E-02  1.58322688905E-02
  1.62330646856E-02  1.66440066746E-02  1.70653517096E-02  1.74973631449E-02
  1.79403110018E-02  1.83944721371E-02  1.88601304162E-02  1.93375768908E-02
  1.98271099804E-02  2.03290356592E-02  2.08436676471E-02  2.13713276057E-02
  2.19123453399E-02  2.24670590031E-02  2.30358153096E-02  2.36189697505E-02
  2.42168868164E-02  2.48299402249E-02  2.54585131543E-02  2.61029984832E-02
  2.67637990359E-02  2.74413278341E-02  2.81360083556E-02  2.88482747982E-02
  2.95785723516E-02  3.03273574757E-02  3.10950981854E-02  3.18822743436E-02
  3.26893779612E-02  3.35169135042E-02  3.43653982092E-02  3.52353624067E-02
  3.61273498527E-02  3.70419180685E-02  3.79796386889E-02  3.89410978197E-02
  3.99268964044E-02  4.09376505990E-02  4.19739921579E-02  4.30365688283E-02
  4.41260447552E-02  4.52431008964E-02  4.63884354485E-02  4.75627642828E-02
  4.87668213931E-02  5.00013593543E-02  5.12671497927E-02  5.25649838686E-02
  5.38956727706E-02  5.52600482226E-02  5.66589630035E-02  5.80932914807E-02
  5.95639301562E-02  6.10717982271E-02  6.26178381598E-02  6.42030162798E-02
  6.58283233750E-02  6.74947753151E-02  6.92034136870E-02  7.09553064452E-02
  7.27515485797E-02  7.45932628003E-02  7.64816002384E-02  7.84177411664E-02
  8.04028957352E-02  8.24383047313E-02  8.45252403514E-02  8.66650069983E-02
  8.88589420957E-02  9.11084169245E-02  9.34148374797E-02  9.57796453493E-02
  9.82043186151E-02  1.00690372777E-01  1.03239361699E-01  1.05852878584E-01
  1.08532556963E-01  1.11280071723E-01  1.14097140151E-01  1.16985523005E-01
  1.19947025620E-01  1.22983499030E-01  1.26096841130E-01  1.29288997861E-01
  1.32561964425E-01  1.35917786531E-01  1.39358561678E-01  1.42886440463E-01
  1.46503627925E-01  1.50212384923E-01  1.54015029552E-01  1.57913938587E-01
  1.61911548975E-01  1.66010359352E-01  1.70212931607E-01  1.74521892486E-01
  1.78939935228E-01  1.83469821255E-01  1.88114381893E-01  1.92876520143E-01
  1.97759212496E-01  2.02765510796E-01  2.07898544140E-01  2.13161520841E-01
  2.18557730433E-01  2.24090545720E-01  2.29763424893E-01  2.35579913687E-01
  2.41543647595E-01  2.47658354146E-01  2.53927855230E-01  2.60356069489E-01
  2.66947014768E-01  2.73704810620E-01  2.80633680889E-01  2.87737956344E-01
  2.95022077388E-01  3.02490596835E-01  3.10148182751E-01  3.17999621378E-01
  3.26049820120E-01  3.34303810613E-01  3.42766751871E-01  3.51443933506E-01
  3.60340779040E-01  3.69462849291E-01  3.78815845851E-01  3.88405614645E-01
  3.98238149592E-01  4.08319596346E-01  4.18656256140E-01  4.29254589723E-01
  4.40121221397E-01  4.51262943162E-01  4.62686718957E-01  4.74399689012E-01
  4.86409174316E-01  4.98722681188E-01  5.11347905971E-01  5.24292739840E-01
  5.37565273739E-01  5.51173803434E-01  5.65126834698E-01  5.79433088630E-01
  5.94101507104E-01  6.09141258360E-01  6.24561742732E-01  6.40372598524E-01
  6.56583708036E-01  6.73205203740E-01  6.90247474610E-01  7.07721172622E-01
  7.25637219404E-01  7.44006813070E-01  7.62841435214E-01  7.82152858088E-01
  8.01953151959E-01  8.22254692656E-01  8.43070169302E-01  8.64412592248E-01
  8.86295301204E-01  9.08731973574E-01  9.31736633010E-01  9.55323658171E-01
  9.79507791718E-01  1.00430414952E+00  1.02972823011E+00  1.05579592436E+00
  1.08252352543E+00  1.10992773895E+00  1.13802569344E+00  1.16683495103E+00
  1.19637351844E+00  1.22665985826E+00  1.25771290041E+00  1.28955205407E+00
  1.32219721974E+00  1.35566880171E+00  1.38998772082E+00  1.42517542750E+00
  1.46125391522E+00  1.49824573420E+00  1.53617400553E+00
  </PP_RAB>
</PP_MESH>


<PP_LOCAL>
 -1.40933449460E+00 -1.40933449470E+00 -1.40933449480E+00 -1.40933449490E+00
 -1.40933449500E+00 -1.40933449510E+00 -1.40933449520E+00 -1.40933449530E+00
 -1.40933449550E+00 -1.40933449560E+00 -1.40933449570E+00 -1.40933449590E+00
 -1.40933449600E+00 -1.40933449620E+00 -1.40933449640E+00 -1.40933449650E+00
 -1.40933449670E+00 -1.40933449690E+00 -1.40933449710E+00 -1.40933449730E+00
 -1.40933449760E+00 -1.40933449780E+00 -1.40933449800E+00 -1.40933449830E+00
 -1.40933449860E+00 -1.40933449890E+00 -1.40933449920E+00 -1.40933449950E+00
 -1.40933449980E+00 -1.40933450020E+00 -1.40933450060E+00 -1.40933450100E+00
 -1.40933450140E+00 -1.40933450180E+00 -1.40933450230E+00 -1.40933450270E+00
 -1.40933450320E+00 -1.40933450380E+00 -1.40933450430E+00 -1.40933450490E+00
 -1.40933450550E+00 -1.40933450620E+00 -1.40933450690E+00 -1.40933450760E+00
 -1.40933450830E+00 -1.40933450910E+00 -1.40933450990E+00 -1.40933451080E+00
 -1.40933451170E+00 -1.40933451270E+00 -1.40933451370E+00 -1.40933451480E+00
 -1.40933451590E+00 -1.40933451710E+00 -1.40933451830E+00 -1.40933451960E+00
 -1.40933452100E+00 -1.40933452240E+00 -1.40933452390E+00 -1.40933452550E+00
 -1.40933452720E+00 -1.40933452900E+00 -1.40933453080E+00 -1.40933453270E+00
 -1.40933453480E+00 -1.40933453690E+00 -1.40933453920E+00 -1.40933454160E+00
 -1.40933454410E+00 -1.40933454670E+00 -1.40933454940E+00 -1.40933455230E+00
 -1.40933455540E+00 -1.40933455860E+00 -1.40933456200E+00 -1.40933456550E+00
 -1.40933456920E+00 -1.40933457310E+00 -1.40933457720E+00 -1.40933458160E+00
 -1.40933458610E+00 -1.40933459090E+00 -1.40933459590E+00 -1.40933460120E+00
 -1.40933460670E+00 -1.40933461260E+00 -1.40933461870E+00 -1.40933462520E+00
 -1.40933463190E+00 -1.40933463910E+00 -1.40933464660E+00 -1.40933465440E+00
 -1.40933466270E+00 -1.40933467140E+00 -1.40933468060E+00 -1.40933469020E+00
 -1.40933470030E+00 -1.40933471090E+00 -1.40933472210E+00 -1.40933473390E+00
 -1.40933474620E+00 -1.40933475920E+00 -1.40933477290E+00 -1.40933478720E+00
 -1.40933480230E+00 -1.40933481820E+00 -1.40933483480E+00 -1.40933485240E+00
 -1.40933487080E+00 -1.40933489020E+00 -1.40933491050E+00 -1.40933493190E+00
 -1.40933495450E+00 -1.40933497810E+00 -1.40933500300E+00 -1.40933502910E+00
 -1.40933505660E+00 -1.40933508550E+00 -1.40933511590E+00 -1.40933514790E+00
 -1.40933518140E+00 -1.40933521670E+00 -1.40933525390E+00 -1.40933529290E+00
 -1.40933533390E+00 -1.40933537700E+00 -1.40933542230E+00 -1.40933547000E+00
 -1.40933552010E+00 -1.40933557270E+00 -1.40933562810E+00 -1.40933568630E+00
 -1.40933574750E+00 -1.40933581180E+00 -1.40933587940E+00 -1.40933595050E+00
 -1.40933602530E+00 -1.40933610380E+00 -1.40933618640E+00 -1.40933627320E+00
 -1.40933636450E+00 -1.40933646050E+00 -1.40933656140E+00 -1.40933666740E+00
 -1.40933677890E+00 -1.40933689610E+00 -1.40933701930E+00 -1.40933714880E+00
 -1.40933728500E+00 -1.40933742820E+00 -1.40933757870E+00 -1.40933773690E+00
 -1.40933790320E+00 -1.40933807800E+00 -1.40933826190E+00 -1.40933845510E+00
 -1.40933865820E+00 -1.40933887180E+00 -1.40933909630E+00 -1.40933933230E+00
 -1.40933958040E+00 -1.40933984130E+00 -1.40934011550E+00 -1.40934040380E+00
 -1.40934070680E+00 -1.40934102540E+00 -1.40934136040E+00 -1.40934171250E+00
 -1.40934208260E+00 -1.40934247170E+00 -1.40934288080E+00 -1.40934331090E+00
 -1.40934376300E+00 -1.40934423830E+00 -1.40934473790E+00 -1.40934526320E+00
 -1.40934581540E+00 -1.40934639590E+00 -1.40934700620E+00 -1.40934764780E+00
 -1.40934832220E+00 -1.40934903130E+00 -1.40934977670E+00 -1.40935056030E+00
 -1.40935138410E+00 -1.40935225010E+00 -1.40935316050E+00 -1.40935411760E+00
 -1.40935512380E+00 -1.40935618160E+00 -1.40935729350E+00 -1.40935846260E+00
 -1.40935969150E+00 -1.40936098350E+00 -1.40936234160E+00 -1.40936376950E+00
 -1.40936527050E+00 -1.40936684850E+00 -1.40936850740E+00 -1.40937025130E+00
 -1.40937208470E+00 -1.40937401210E+00 -1.40937603820E+00 -1.40937816830E+00
 -1.40938040750E+00 -1.40938276160E+00 -1.40938523640E+00 -1.40938783800E+00
 -1.40939057310E+00 -1.40939344830E+00 -1.40939647100E+00 -1.40939964860E+00
 -1.40940298920E+00 -1.40940650100E+00 -1.40941019290E+00 -1.40941407410E+00
 -1.40941815420E+00 -1.40942244360E+00 -1.40942695280E+00 -1.40943169330E+00
 -1.40943667670E+00 -1.40944191570E+00 -1.40944742330E+00 -1.40945321320E+00
 -1.40945930000E+00 -1.40946569880E+00 -1.40947242570E+00 -1.40947949750E+00
 -1.40948693180E+00 -1.40949474730E+00 -1.40950296350E+00 -1.40951160080E+00
 -1.40952068100E+00 -1.40953022680E+00 -1.40954026190E+00 -1.40955081140E+00
 -1.40956190190E+00 -1.40957356090E+00 -1.40958581760E+00 -1.40959870260E+00
 -1.40961224820E+00 -1.40962648830E+00 -1.40964145830E+00 -1.40965719590E+00
 -1.40967374010E+00 -1.40969113260E+00 -1.40970941660E+00 -1.40972863790E+00
 -1.40974884460E+00 -1.40977008720E+00 -1.40979241870E+00 -1.40981589490E+00
 -1.40984057460E+00 -1.40986651940E+00 -1.40989379420E+00 -1.40992246700E+00
 -1.40995260960E+00 -1.40998429730E+00 -1.41001760930E+00 -1.41005262880E+00
 -1.41008944320E+00 -1.41012814460E+00 -1.41016882970E+00 -1.41021160010E+00
 -1.41025656260E+00 -1.41030382970E+00 -1.41035351920E+00 -1.41040575540E+00
 -1.41046066870E+00 -1.41051839630E+00 -1.41057908230E+00 -1.41064287820E+00
 -1.41070994340E+00 -1.41078044530E+00 -1.41085456000E+00 -1.41093247230E+00
 -1.41101437690E+00 -1.41110047820E+00 -1.41119099090E+00 -1.41128614110E+00
 -1.41138616610E+00 -1.41149131550E+00 -1.41160185160E+00 -1.41171805000E+00