<PP_INFO>
Generated using "atomic" code by A. Dal Corso  (espresso distribution)     
Author: anonymous   Generation date: 17Jun2008                             
Sih                                                                        
    0        The Pseudo was generated with a Non-Relativistic Calculation
    2 2.0000000E+00    L component and cutoff radius for Local Potential
nl pn  l   occ               Rcut            Rcut US             E pseu
3S  1  0  2.00      2.20000000000      2.40000000000     -1.82276732957
3S  1  0  0.00      1.40000000000      1.60000000000     -0.13600000000
3P  2  1  1.00      2.10000000000      2.30000000000     -1.20516990895
3P  2  1  0.00      2.10000000000      2.30000000000     -0.07100000000
3D  3  2  1.00      2.00000000000      2.00000000000     -0.38876467152
</PP_INFO>


<PP_HEADER>
   0                   Version Number
  Si                   Element
   US                  Ultrasoft pseudopotential
    F                  Nonlinear Core Correction
 SLA  PW   PBX  PBC    PBE  Exchange-Correlation functional
    5.00000000000      Z valence
  -11.15658086114      Total energy
     20.709    257.570 Suggested cutoff for wfc and rho
    2                  Max angular momentum component
 1141                  Number of points in mesh
    5    4             Number of Wavefunctions, Number of Projectors
 Wavefunctions         nl  l   occ
                       3S  0  2.00
                       4S  0  0.00
                       3P  1  1.00
                       4P  1  0.00
                       3D  2  1.00
</PP_HEADER>


<PP_MESH>
  <PP_R>
  6.51344261110E-05  6.59537163335E-05  6.67833119583E-05  6.76233426115E-05
  6.84739395496E-05  6.93352356800E-05  7.02073655821E-05  7.10904655278E-05
  7.19846735035E-05  7.28901292308E-05  7.38069741891E-05  7.47353516373E-05
  7.56754066363E-05  7.66272860714E-05  7.75911386760E-05  7.85671150538E-05
  7.95553677032E-05  8.05560510407E-05  8.15693214250E-05  8.25953371817E-05
  8.36342586279E-05  8.46862480972E-05  8.57514699651E-05  8.68300906746E-05
  8.79222787624E-05  8.90282048851E-05  9.01480418460E-05  9.12819646219E-05
  9.24301503904E-05  9.35927785580E-05  9.47700307876E-05  9.59620910274E-05
  9.71691455391E-05  9.83913829275E-05  9.96289941697E-05  1.00882172645E-04
  1.02151114165E-04  1.03436017004E-04  1.04737081932E-04  1.06054512241E-04
  1.07388513784E-04  1.08739295001E-04  1.10107066953E-04  1.11492043359E-04
  1.12894440624E-04  1.14314477875E-04  1.15752376995E-04  1.17208362660E-04
  1.18682662370E-04  1.20175506487E-04  1.21687128272E-04  1.23217763918E-04
  1.24767652590E-04  1.26337036462E-04  1.27926160753E-04  1.29535273767E-04
  1.31164626931E-04  1.32814474834E-04  1.34485075270E-04  1.36176689272E-04
  1.37889581159E-04  1.39624018574E-04  1.41380272525E-04  1.43158617432E-04
  1.44959331164E-04  1.46782695086E-04  1.48628994104E-04  1.50498516703E-04
  1.52391555003E-04  1.54308404792E-04  1.56249365584E-04  1.58214740658E-04
  1.60204837106E-04  1.62219965886E-04  1.64260441866E-04  1.66326583874E-04
  1.68418714749E-04  1.70537161391E-04  1.72682254812E-04  1.74854330186E-04
  1.77053726905E-04  1.79280788629E-04  1.81535863341E-04  1.83819303401E-04
  1.86131465601E-04  1.88472711221E-04  1.90843406086E-04  1.93243920621E-04
  1.95674629912E-04  1.98135913762E-04  2.00628156752E-04  2.03151748299E-04
  2.05707082721E-04  2.08294559292E-04  2.10914582312E-04  2.13567561165E-04
  2.16253910384E-04  2.18974049716E-04  2.21728404189E-04  2.24517404177E-04
  2.27341485465E-04  2.30201089323E-04  2.33096662570E-04  2.36028657644E-04
  2.38997532677E-04  2.42003751560E-04  2.45047784021E-04  2.48130105698E-04
  2.51251198208E-04  2.54411549229E-04  2.57611652573E-04  2.60852008261E-04
  2.64133122606E-04  2.67455508289E-04  2.70819684439E-04  2.74226176716E-04
  2.77675517391E-04  2.81168245431E-04  2.84704906581E-04  2.88286053451E-04
  2.91912245605E-04  2.95584049640E-04  2.99302039285E-04  3.03066795482E-04
  3.06878906482E-04  3.10738967936E-04  3.14647582986E-04  3.18605362361E-04
  3.22612924472E-04  3.26670895509E-04  3.30779909538E-04  3.34940608601E-04
  3.39153642815E-04  3.43419670476E-04  3.47739358159E-04  3.52113380825E-04
  3.56542421922E-04  3.61027173498E-04  3.65568336305E-04  3.70166619908E-04
  3.74822742799E-04  3.79537432505E-04  3.84311425708E-04  3.89145468353E-04
  3.94040315769E-04  3.98996732786E-04  4.04015493854E-04  4.09097383165E-04
  4.14243194774E-04  4.19453732726E-04  4.24729811177E-04  4.30072254524E-04
  4.35481897537E-04  4.40959585482E-04  4.46506174259E-04  4.52122530535E-04
  4.57809531875E-04  4.63568066887E-04  4.69399035352E-04  4.75303348372E-04
  4.81281928506E-04  4.87335709921E-04  4.93465638532E-04  4.99672672154E-04
  5.05957780647E-04  5.12321946072E-04  5.18766162844E-04  5.25291437884E-04
  5.31898790780E-04  5.38589253945E-04  5.45363872776E-04  5.52223705821E-04
  5.59169824945E-04  5.66203315491E-04  5.73325276457E-04  5.80536820664E-04
  5.87839074930E-04  5.95233180248E-04  6.02720291961E-04  6.10301579946E-04
  6.17978228794E-04  6.25751437998E-04  6.33622422138E-04  6.41592411070E-04
  6.49662650121E-04  6.57834400283E-04  6.66108938409E-04  6.74487557412E-04
  6.82971566467E-04  6.91562291220E-04  7.00261073987E-04  7.09069273972E-04
  7.17988267474E-04  7.27019448103E-04  7.36164227000E-04  7.45424033055E-04
  7.54800313132E-04  7.64294532294E-04  7.73908174031E-04  7.83642740495E-04
  7.93499752732E-04  8.03480750919E-04  8.13587294608E-04  8.23820962967E-04
  8.34183355028E-04  8.44676089935E-04  8.55300807200E-04  8.66059166956E-04
  8.76952850219E-04  8.87983559149E-04  8.99153017317E-04  9.10462969973E-04
  9.21915184320E-04  9.33511449791E-04  9.45253578324E-04  9.57143404653E-04
  9.69182786586E-04  9.81373605301E-04  9.93717765638E-04  1.00621719640E-03
  1.01887385064E-03  1.03168970600E-03  1.04466676497E-03  1.05780705525E-03
  1.07111263003E-03  1.08458556835E-03  1.09822797536E-03  1.11204198273E-03
  1.12602974892E-03  1.14019345955E-03  1.15453532773E-03  1.16905759440E-03
  1.18376252870E-03  1.19865242830E-03  1.21372961978E-03  1.22899645899E-03
  1.24445533139E-03  1.26010865247E-03  1.27595886809E-03  1.29200845488E-03
  1.30825992062E-03  1.32471580464E-03  1.34137867819E-03  1.35825114489E-03
  1.37533584110E-03  1.39263543633E-03  1.41015263368E-03  1.42789017025E-03
  1.44585081756E-03  1.46403738200E-03  1.48245270526E-03  1.50109966478E-03
  1.51998117417E-03  1.53910018371E-03  1.55845968079E-03  1.57806269036E-03
  1.59791227544E-03  1.61801153756E-03  1.63836361728E-03  1.65897169465E-03
  1.67983898971E-03  1.70096876304E-03  1.72236431620E-03  1.74402899229E-03
  1.76596617645E-03  1.78817929643E-03  1.81067182305E-03  1.83344727083E-03
  1.85650919848E-03  1.87986120947E-03  1.90350695260E-03  1.92745012256E-03
  1.95169446052E-03  1.97624375471E-03  2.00110184102E-03  2.02627260355E-03
  2.05175997530E-03  2.07756793873E-03  2.10370052636E-03  2.13016182149E-03
  2.15695595874E-03  2.18408712474E-03  2.21155955880E-03  2.23937755354E-03
  2.26754545558E-03  2.29606766621E-03  2.32494864208E-03  2.35419289591E-03
  2.38380499717E-03  2.41378957281E-03  2.44415130798E-03  2.47489494676E-03
  2.50602529292E-03  2.53754721062E-03  2.56946562524E-03  2.60178552410E-03
  2.63451195723E-03  2.66765003822E-03  2.70120494495E-03  2.73518192045E-03
  2.76958627369E-03  2.80442338043E-03  2.83969868402E-03  2.87541769630E-03
  2.91158599845E-03  2.94820924184E-03  2.98529314892E-03  3.02284351413E-03
  3.06086620479E-03  3.09936716202E-03  3.13835240167E-03  3.17782801527E-03
  3.21780017097E-03  3.25827511449E-03  3.29925917012E-03  3.34075874171E-03
  3.38278031365E-03  3.42533045190E-03  3.46841580500E-03  3.51204310513E-03
  3.55621916913E-03  3.60095089962E-03  3.64624528601E-03  3.69210940565E-03
  3.73855042489E-03  3.78557560024E-03  3.83319227948E-03  3.88140790281E-03
  3.93023000403E-03  3.97966621168E-03  4.02972425027E-03  4.08041194147E-03
  4.13173720535E-03  4.18370806156E-03  4.23633263067E-03  4.28961913538E-03
  4.34357590180E-03  4.39821136080E-03  4.45353404926E-03  4.50955261149E-03
  4.56627580048E-03  4.62371247936E-03  4.68187162272E-03  4.74076231804E-03
  4.80039376712E-03  4.86077528750E-03  4.92191631390E-03  4.98382639975E-03
  5.04651521860E-03  5.10999256573E-03  5.17426835959E-03  5.23935264341E-03
  5.30525558674E-03  5.37198748705E-03  5.43955877133E-03  5.50797999774E-03
  5.57726185723E-03  5.64741517523E-03  5.71845091334E-03  5.79038017104E-03
  5.86321418742E-03  5.93696434295E-03  6.01164216124E-03  6.08725931084E-03
  6.16382760710E-03  6.24135901396E-03  6.31986564586E-03  6.39935976963E-03
  6.47985380639E-03  6.56136033348E-03  6.64389208648E-03  6.72746196113E-03
  6.81208301540E-03  6.89776847150E-03  6.98453171795E-03  7.07238631170E-03
  7.16134598020E-03  7.25142462358E-03  7.34263631681E-03  7.43499531190E-03
  7.52851604013E-03  7.62321311432E-03  7.71910133106E-03  7.81619567309E-03
  7.91451131160E-03  8.01406360860E-03  8.11486811934E-03  8.21694059474E-03
  8.32029698382E-03  8.42495343624E-03  8.53092630477E-03  8.63823214789E-03
  8.74688773236E-03  8.85691003583E-03  8.96831624951E-03  9.08112378086E-03
  9.19535025627E-03  9.31101352387E-03  9.42813165627E-03  9.54672295343E-03
  9.66680594547E-03  9.78839939561E-03  9.91152230307E-03  1.00361939061E-02
  1.01624336848E-02  1.02902613644E-02  1.04196969183E-02  1.05507605711E-02
  1.06834728016E-02  1.08178543465E-02  1.09539262032E-02  1.10917096331E-02
  1.12312261653E-02  1.13724975993E-02  1.15155460093E-02  1.16603937467E-02
  1.18070634444E-02  1.19555780198E-02  1.21059606785E-02  1.22582349183E-02
  1.24124245322E-02  1.25685536127E-02  1.27266465552E-02  1.28867280622E-02
  1.30488231466E-02  1.32129571362E-02  1.33791556773E-02  1.35474447386E-02
  1.37178506158E-02  1.38903999350E-02  1.40651196574E-02  1.42420370835E-02
  1.44211798568E-02  1.46025759687E-02  1.47862537629E-02  1.49722419394E-02
  1.51605695591E-02  1.53512660486E-02  1.55443612047E-02  1.57398851988E-02
  1.59378685820E-02  1.61383422897E-02  1.63413376461E-02  1.65468863698E-02
  1.67550205781E-02  1.69657727925E-02  1.71791759435E-02  1.73952633756E-02
  1.76140688530E-02  1.78356265645E-02  1.80599711289E-02  1.82871376006E-02
  1.85171614747E-02  1.87500786930E-02  1.89859256492E-02  1.92247391949E-02
  1.94665566453E-02  1.97114157847E-02  1.99593548730E-02  2.02104126510E-02
  2.04646283472E-02  2.07220416831E-02  2.09826928803E-02  2.12466226658E-02
  2.15138722794E-02  2.17844834794E-02  2.20584985491E-02  2.23359603042E-02
  2.26169120985E-02  2.29013978313E-02  2.31894619542E-02  2.34811494776E-02
  2.37765059784E-02  2.40755776067E-02  2.43784110929E-02  2.46850537555E-02
  2.49955535079E-02  2.53099588665E-02  2.56283189576E-02  2.59506835256E-02
  2.62771029408E-02  2.66076282068E-02  2.69423109688E-02  2.72812035217E-02
  2.76243588182E-02  2.79718304769E-02  2.83236727911E-02  2.86799407367E-02
  2.90406899815E-02  2.94059768931E-02  2.97758585485E-02  3.01503927423E-02
  3.05296379963E-02  3.09136535684E-02  3.13024994618E-02  3.16962364344E-02
  3.20949260084E-02  3.24986304799E-02  3.29074129285E-02  3.33213372273E-02
  3.37404680529E-02  3.41648708953E-02  3.45946120682E-02  3.50297587197E-02
  3.54703788422E-02  3.59165412836E-02  3.63683157577E-02  3.68257728551E-02
  3.72889840544E-02  3.77580217333E-02  3.82329591799E-02  3.87138706042E-02
  3.92008311496E-02  3.96939169045E-02  4.01932049148E-02  4.06987731951E-02
  4.12107007415E-02  4.17290675437E-02  4.22539545976E-02  4.27854439179E-02
  4.33236185509E-02  4.38685625874E-02  4.44203611761E-02  4.49791005365E-02
  4.55448679730E-02  4.61177518877E-02  4.66978417950E-02  4.72852283351E-02
  4.78800032883E-02  4.84822595894E-02  4.90920913422E-02  4.97095938342E-02
  5.03348635513E-02  5.09679981933E-02  5.16090966887E-02  5.22582592105E-02
  5.29155871916E-02  5.35811833408E-02  5.42551516589E-02  5.49375974549E-02
  5.56286273622E-02  5.63283493558E-02  5.70368727685E-02  5.77543083087E-02
  5.84807680770E-02  5.92163655843E-02  5.99612157692E-02  6.07154350161E-02
  6.14791411732E-02  6.22524535712E-02  6.30354930418E-02  6.38283819363E-02
  6.46312441454E-02  6.54442051179E-02  6.62673918806E-02  6.71009330581E-02
  6.79449588929E-02  6.87996012658E-02  6.96649937163E-02  7.05412714638E-02
  7.14285714286E-02  7.23270322529E-02  7.32367943232E-02  7.41579997916E-02
  7.50907925983E-02  7.60353184941E-02  7.69917250632E-02  7.79601617459E-02
  7.89407798625E-02  7.99337326366E-02  8.09391752191E-02  8.19572647123E-02
  8.29881601949E-02  8.40320227463E-02  8.50890154723E-02  8.61593035301E-02
  8.72430541543E-02  8.83404366832E-02  8.94516225851E-02  9.05767854851E-02
  9.17161011920E-02  9.28697477263E-02  9.40379053477E-02  9.52207565831E-02
  9.64184862554E-02  9.76312815124E-02  9.88593318558E-02  1.00102829171E-01
  1.01361967757E-01  1.02636944356E-01  1.03927958187E-01  1.05235210973E-01
  1.06558906974E-01  1.07899253022E-01  1.09256458547E-01  1.10630735617E-01
  1.12022298964E-01  1.13431366023E-01  1.14858156963E-01  1.16302894725E-01
  1.17765805050E-01  1.19247116522E-01  1.20747060599E-01  1.22265871649E-01
  1.23803786991E-01  1.25361046926E-01  1.26937894780E-01  1.28534576938E-01
  1.30151342885E-01  1.31788445244E-01  1.33446139817E-01  1.35124685620E-01
  1.36824344930E-01  1.38545383322E-01  1.40288069712E-01  1.42052676399E-01
  1.43839479105E-01  1.45648757023E-01  1.47480792855E-01  1.49335872861E-01
  1.51214286901E-01  1.53116328481E-01  1.55042294799E-01  1.56992486791E-01
  1.58967209178E-01  1.60966770515E-01  1.62991483238E-01  1.65041663711E-01
  1.67117632280E-01  1.69219713320E-01  1.71348235283E-01  1.73503530757E-01
  1.75685936511E-01  1.77895793550E-01  1.80133447168E-01  1.82399247004E-01
  1.84693547094E-01  1.87016705926E-01  1.89369086499E-01  1.91751056377E-01
  1.94162987747E-01  1.96605257479E-01  1.99078247183E-01  2.01582343268E-01
  2.04117937005E-01  2.06685424584E-01  2.09285207181E-01  2.11917691018E-01
  2.14583287425E-01  2.17282412907E-01  2.20015489208E-01  2.22782943378E-01
  2.25585207835E-01  2.28422720440E-01  2.31295924560E-01  2.34205269138E-01
  2.37151208767E-01  2.40134203754E-01  2.43154720199E-01  2.46213230064E-01
  2.49310211247E-01  2.52446147658E-01  2.55621529293E-01  2.58836852312E-01
  2.62092619116E-01  2.65389338424E-01  2.68727525357E-01  2.72107701512E-01
  2.75530395050E-01  2.78996140772E-01  2.82505480209E-01  2.86058961701E-01
  2.89657140489E-01  2.93300578794E-01  2.96989845911E-01  3.00725518296E-01
  3.04508179655E-01  3.08338421036E-01  3.12216840924E-01  3.16144045327E-01
  3.20120647881E-01  3.24147269938E-01  3.28224540665E-01  3.32353097144E-01
  3.36533584471E-01  3.40766655855E-01  3.45052972722E-01  3.49393204819E-01
  3.53788030314E-01  3.58238135909E-01  3.62744216941E-01  3.67306977496E-01
  3.71927130513E-01  3.76605397901E-01  3.81342510648E-01  3.86139208939E-01
  3.90996242266E-01  3.95914369552E-01  4.00894359264E-01  4.05936989535E-01
  4.11043048286E-01  4.16213333350E-01  4.21448652594E-01  4.26749824048E-01
  4.32117676029E-01  4.37553047277E-01  4.43056787079E-01  4.48629755405E-01
  4.54272823043E-01  4.59986871734E-01  4.65772794309E-01  4.71631494831E-01
  4.77563888734E-01  4.83570902966E-01  4.89653476136E-01  4.95812558657E-01
  5.02049112899E-01  5.08364113337E-01  5.14758546701E-01  5.21233412136E-01
  5.27789721352E-01  5.34428498786E-01  5.41150781760E-01  5.47957620644E-01
  5.54850079022E-01  5.61829233853E-01  5.68896175645E-01  5.76052008622E-01
  5.83297850898E-01  5.90634834649E-01  5.98064106295E-01  6.05586826674E-01
  6.13204171227E-01  6.20917330179E-01  6.28727508728E-01  6.36635927228E-01
  6.44643821388E-01  6.52752442456E-01  6.60963057422E-01  6.69276949210E-01
  6.77695416883E-01  6.86219775843E-01  6.94851358040E-01  7.03591512175E-01
  7.12441603915E-01  7.21403016106E-01  7.30477148985E-01  7.39665420405E-01
  7.48969266052E-01  7.58390139670E-01  7.67929513291E-01  7.77588877461E-01
  7.87369741474E-01  7.97273633612E-01  8.07302101377E-01  8.17456711738E-01
  8.27739051373E-01  8.38150726919E-01  8.48693365221E-01  8.59368613589E-01
  8.70178140050E-01  8.81123633617E-01  8.92206804543E-01  9.03429384599E-01
  9.14793127333E-01  9.26299808355E-01  9.37951225606E-01  9.49749199645E-01
  9.61695573929E-01  9.73792215102E-01  9.86041013291E-01  9.98443882393E-01
  1.01100276038E+00  1.02371960961E+00  1.03659641711E+00  1.04963519491E+00
  1.06283798035E+00  1.07620683638E+00  1.08974385192E+00  1.10345114215E+00
  1.11733084887E+00  1.13138514081E+00  1.14561621398E+00  1.16002629201E+00
  1.17461762651E+00  1.18939249740E+00  1.20435321329E+00  1.21950211182E+00
  1.23484156004E+00  1.25037395476E+00  1.26610172296E+00  1.28202732213E+00
  1.29815324067E+00  1.31448199830E+00  1.33101614642E+00  1.34775826852E+00
  1.36471098059E+00  1.38187693152E+00  1.39925880354E+00  1.41685931260E+00
  1.43468120880E+00  1.45272727686E+00  1.47100033651E+00  1.48950324296E+00
  1.50823888732E+00  1.52721019708E+00  1.54642013654E+00  1.56587170729E+00
  1.58556794867E+00  1.60551193828E+00  1.62570679239E+00  1.64615566650E+00
  1.66686175578E+00  1.68782829560E+00  1.70905856203E+00  1.73055587233E+00
  1.75232358551E+00  1.77436510281E+00  1.79668386827E+00  1.81928336924E+00
  1.84216713694E+00  1.86533874700E+00  1.88880182004E+00  1.91256002220E+00
  1.93661706576E+00  1.96097670968E+00  1.98564276019E+00  2.01061907143E+00
  2.03590954598E+00  2.06151813555E+00  2.08744884152E+00  2.11370571561E+00
  2.14029286053E+00  2.16721443056E+00  2.19447463225E+00  2.22207772507E+00
  2.25002802205E+00  2.27832989049E+00  2.30698775262E+00  2.33600608627E+00
  2.36538942562E+00  2.39514236189E+00  2.42526954402E+00  2.45577567945E+00
  2.48666553483E+00  2.51794393676E+00  2.54961577255E+00  2.58168599099E+00
  2.61415960312E+00  2.64704168301E+00  2.68033736854E+00  2.71405186225E+00
  2.74819043207E+00  2.78275841225E+00  2.81776120409E+00  2.85320427684E+00
  2.88909316858E+00  2.92543348699E+00  2.96223091035E+00  2.99949118830E+00
  3.03722014286E+00  3.07542366925E+00  3.11410773684E+00  3.15327839010E+00
  3.19294174952E+00  3.23310401259E+00  3.27377145474E+00  3.31495043034E+00
  3.35664737368E+00  3.39886880001E+00  3.44162130651E+00  3.48491157333E+00
  3.52874636468E+00  3.57313252983E+00  3.61807700420E+00  3.66358681047E+00
  3.70966905963E+00  3.75633095213E+00  3.80357977898E+00  3.85142292291E+00
  3.89986785951E+00  3.94892215840E+00  3.99859348440E+00  4.04888959878E+00
  4.09981836039E+00  4.15138772696E+00  4.20360575631E+00  4.25648060761E+00
  4.31002054267E+00  4.36423392720E+00  4.41912923217E+00  4.47471503507E+00
  4.53100002129E+00  4.58799298549E+00  4.64570283293E+00  4.70413858089E+00
  4.76330936007E+00  4.82322441602E+00  4.88389311061E+00  4.94532492343E+00
  5.00752945333E+00  5.07051641990E+00  5.13429566498E+00  5.19887715419E+00
  5.26427097854E+00  5.33048735594E+00  5.39753663284E+00  5.46542928581E+00
  5.53417592323E+00  5.60378728690E+00  5.67427425373E+00  5.74564783746E+00
  5.81791919035E+00  5.89109960496E+00  5.96520051586E+00  6.04023350148E+00
  6.11621028587E+00  6.19314274056E+00  6.27104288641E+00  6.34992289547E+00
  6.42979509289E+00  6.51067195889E+00  6.59256613062E+00  6.67549040422E+00
  6.75945773678E+00  6.84448124836E+00  6.93057422407E+00  7.01775011609E+00
  7.10602254585E+00  7.19540530609E+00  7.28591236305E+00  7.37755785864E+00
  7.47035611265E+00  7.56432162501E+00  7.65946907800E+00  7.75581333863E+00
  7.85336946087E+00  7.95215268806E+00  8.05217845529E+00  8.15346239179E+00
  8.25602032337E+00  8.35986827493E+00  8.46502247291E+00  8.57149934787E+00
  8.67931553705E+00  8.78848788694E+00  8.89903345594E+00  9.01096951703E+00
  9.12431356043E+00  9.23908329639E+00  9.35529665792E+00  9.47297180358E+00
  9.59212712035E+00  9.71278122651E+00  9.83495297449E+00  9.95866145388E+00
  1.00839259944E+01  1.02107661689E+01  1.03392017963E+01  1.04692529451E+01
  1.06009399359E+01  1.07342833452E+01  1.08693040080E+01  1.10060230218E+01
  1.11444617490E+01  1.12846418211E+01  1.14265851414E+01  1.15703138889E+01
  1.17158505214E+01  1.18632177795E+01  1.20124386894E+01  1.21635365674E+01
  1.23165350226E+01  1.24714579616E+01  1.26283295912E+01  1.27871744230E+01
  1.29480172768E+01  1.31108832847E+01  1.32757978947E+01  1.34427868752E+01
  1.36118763185E+01  1.37830926451E+01  1.39564626080E+01  1.41320132966E+01
  1.43097721411E+01  1.44897669165E+01  1.46720257475E+01  1.48565771124E+01
  1.50434498476E+01  1.52326731525E+01  1.54242765936E+01  1.56182901093E+01
  1.58147440146E+01  1.60136690058E+01  1.62150961654E+01  1.64190569667E+01
  1.66255832791E+01  1.68347073727E+01  1.70464619236E+01  1.72608800189E+01
  1.74779951617E+01  1.76978412769E+01  1.79204527158E+01  1.81458642618E+01
  1.83741111361E+01  1.86052290027E+01  1.88392539741E+01  1.90762226172E+01
  1.93161719590E+01  1.95591394919E+01  1.98051631802E+01  2.00542814655E+01
  2.03065332731E+01  2.05619580179E+01  2.08205956104E+01  2.10824864633E+01
  2.13476714976E+01  2.16161921491E+01  2.18880903745E+01  2.21634086586E+01
  2.24421900204E+01  2.27244780200E+01  2.30103167656E+01  2.32997509200E+01
  2.35928257078E+01  2.38895869227E+01  2.41900809341E+01  2.44943546949E+01
  2.48024557485E+01  2.51144322362E+01  2.54303329051E+01  2.57502071152E+01
  2.60741048475E+01  2.64020767118E+01  2.67341739543E+01  2.70704484659E+01
  2.74109527901E+01  2.77557401314E+01  2.81048643636E+01  2.84583800381E+01
  2.88163423923E+01  2.91788073587E+01  2.95458315731E+01  2.99174723837E+01
  3.02937878603E+01  3.06748368029E+01  3.10606787512E+01  3.14513739937E+01
  3.18469835773E+01  3.22475693170E+01  3.26531938049E+01  3.30639204208E+01
  3.34798133416E+01  3.39009375513E+01  3.43273588515E+01  3.47591438713E+01
  3.51963600781E+01  3.56390757877E+01  3.60873601755E+01  3.65412832867E+01
  3.70009160477E+01  3.74663302772E+01  3.79375986970E+01  3.84147949438E+01
  3.88979935804E+01  3.93872701077E+01  3.98827009761E+01  4.03843635976E+01
  4.08923363581E+01  4.14066986294E+01  4.19275307816E+01  4.24549141957E+01
  4.29889312766E+01  4.35296654654E+01  4.40772012531E+01  4.46316241931E+01
  4.51930209152E+01  4.57614791387E+01  4.63370876865E+01  4.69199364985E+01
  4.75101166460E+01  4.81077203459E+01  4.87128409750E+01  4.93255730847E+01
  4.99460124154E+01  5.05742559122E+01  5.12104017394E+01  5.18545492961E+01
  5.25067992316E+01  5.31672534613E+01  5.38360151825E+01  5.45131888906E+01
  5.51988803954E+01  5.58931968375E+01  5.65962467054E+01  5.73081398520E+01
  5.80289875120E+01  5.87589023193E+01  5.94979983247E+01  6.02463910134E+01
  6.10041973233E+01  6.17715356631E+01  6.25485259310E+01  6.33352895334E+01
  6.41319494036E+01  6.49386300214E+01  6.57554574322E+01  6.65825592671E+01
  6.74200647623E+01  6.82681047797E+01  6.91268118275E+01  6.99963200802E+01
  7.08767654004E+01  7.17682853593E+01  7.26710192589E+01  7.35851081530E+01
  7.45106948700E+01  7.54479240347E+01  7.63969420910E+01  7.73578973250E+01
  7.83309398877E+01  7.93162218193E+01  8.03138970718E+01  8.13241215342E+01
  8.23470530560E+01  8.33828514723E+01  8.44316786289E+01  8.54936984070E+01
  8.65690767495E+01  8.76579816863E+01  8.87605833611E+01  8.98770540576E+01
  9.10075682267E+01  9.21523025134E+01  9.33114357850E+01  9.44851491582E+01
  9.56736260282E+01  9.68770520969E+01  9.80956154021E+01  9.93295063468E+01
  1.00578917729E+02
  </PP_R>
  <PP_RAB>
  8.14180326388E-07  8.24421454169E-07  8.34791399479E-07  8.45291782644E-07
  8.55924244370E-07  8.66690446000E-07  8.77592069776E-07  8.88630819098E-07
  8.99808418793E-07  9.11126615385E-07  9.22587177364E-07  9.34191895466E-07
  9.45942582953E-07  9.57841075893E-07  9.69889233450E-07  9.82088938173E-07
  9.94442096290E-07  1.00695063801E-06  1.01961651781E-06  1.03244171477E-06
  1.04542823285E-06  1.05857810122E-06  1.07189337456E-06  1.08537613343E-06
  1.09902848453E-06  1.11285256106E-06  1.12685052308E-06  1.14102455777E-06
  1.15537687988E-06  1.16990973197E-06  1.18462538485E-06  1.19952613784E-06
  1.21461431924E-06  1.22989228659E-06  1.24536242712E-06  1.26102715806E-06
  1.27688892706E-06  1.29295021255E-06  1.30921352415E-06  1.32568140302E-06
  1.34235642230E-06  1.35924118751E-06  1.37633833692E-06  1.39365054199E-06
  1.41118050780E-06  1.42893097343E-06  1.44690471244E-06  1.46510453325E-06
  1.48353327962E-06  1.50219383109E-06  1.52108910340E-06  1.54022204897E-06
  1.55959565738E-06  1.57921295578E-06  1.59907700941E-06  1.61919092208E-06
  1.63955783663E-06  1.66018093543E-06  1.68106344087E-06  1.70220861590E-06
  1.72361976449E-06  1.74530023217E-06  1.76725340657E-06  1.78948271790E-06
  1.81199163955E-06  1.83478368858E-06  1.85786242629E-06  1.88123145879E-06
  1.90489443753E-06  1.92885505991E-06  1.95311706981E-06  1.97768425822E-06
  2.00256046383E-06  2.02774957358E-06  2.05325552333E-06  2.07908229843E-06
  2.10523393437E-06  2.13171451739E-06  2.15852818515E-06  2.18567912732E-06
  2.21317158631E-06  2.24100985786E-06  2.26919829176E-06  2.29774129251E-06
  2.32664332001E-06  2.35590889026E-06  2.38554257607E-06  2.41554900776E-06
  2.44593287390E-06  2.47669892203E-06  2.50785195940E-06  2.53939685374E-06
  2.57133853401E-06  2.60368199115E-06  2.63643227890E-06  2.66959451457E-06
  2.70317387980E-06  2.73717562145E-06  2.77160505237E-06  2.80646755221E-06
  2.84176856831E-06  2.87751361654E-06  2.91370828212E-06  2.95035822055E-06
  2.98746915846E-06  3.02504689450E-06  3.06309730027E-06  3.10162632122E-06
  3.14063997760E-06  3.18014436536E-06  3.22014565716E-06  3.26065010326E-06
  3.30166403257E-06  3.34319385361E-06  3.38524605549E-06  3.42782720895E-06
  3.47094396739E-06  3.51460306788E-06  3.55881133226E-06  3.60357566814E-06
  3.64890307006E-06  3.69480062050E-06  3.74127549106E-06  3.78833494352E-06
  3.83598633103E-06  3.88423709920E-06  3.93309478733E-06  3.98256702952E-06
  4.03266155590E-06  4.08338619386E-06  4.13474886923E-06  4.18675760751E-06
  4.23942053519E-06  4.29274588095E-06  4.34674197699E-06  4.40141726031E-06
  4.45678027403E-06  4.51283966873E-06  4.56960420381E-06  4.62708274885E-06
  4.68528428498E-06  4.74421790632E-06  4.80389282135E-06  4.86431835441E-06
  4.92550394711E-06  4.98745915982E-06  5.05019367317E-06  5.11371728956E-06
  5.17803993468E-06  5.24317165907E-06  5.30912263971E-06  5.37590318155E-06
  5.44352371921E-06  5.51199481852E-06  5.58132717824E-06  5.65153163168E-06
  5.72261914844E-06  5.79460083609E-06  5.86748794190E-06  5.94129185464E-06
  6.01602410633E-06  6.09169637402E-06  6.16832048166E-06  6.24590840192E-06
  6.32447225808E-06  6.40402432590E-06  6.48457703555E-06  6.56614297355E-06
  6.64873488475E-06  6.73236567431E-06  6.81704840970E-06  6.90279632277E-06
  6.98962281181E-06  7.07754144363E-06  7.16656595571E-06  7.25671025830E-06
  7.34798843663E-06  7.44041475310E-06  7.53400364951E-06  7.62876974932E-06
  7.72472785993E-06  7.82189297498E-06  7.92028027672E-06  8.01990513837E-06
  8.12078312651E-06  8.22293000354E-06  8.32636173011E-06  8.43109446765E-06
  8.53714458084E-06  8.64452864025E-06  8.75326342484E-06  8.86336592465E-06
  8.97485334342E-06  9.08774310129E-06  9.20205283750E-06  9.31780041319E-06
  9.43500391415E-06  9.55368165367E-06  9.67385217539E-06  9.79553425619E-06
  9.91874690914E-06  1.00435093865E-05  1.01698411826E-05  1.02977620371E-05
  1.04272919379E-05  1.05584511242E-05  1.06912600900E-05  1.08257395870E-05
  1.09619106277E-05  1.10997944894E-05  1.12394127165E-05  1.13807871247E-05
  1.15239398040E-05  1.16688931224E-05  1.18156697291E-05  1.19642925582E-05
  1.21147848323E-05  1.22671700663E-05  1.24214720705E-05  1.25777149550E-05
  1.27359231330E-05  1.28961213250E-05  1.30583345621E-05  1.32225881906E-05
  1.33889078754E-05  1.35573196043E-05  1.37278496920E-05  1.39005247841E-05
  1.40753718615E-05  1.42524182444E-05  1.44316915966E-05  1.46132199300E-05
  1.47970316087E-05  1.49831553538E-05  1.51716202473E-05  1.53624557374E-05
  1.55556916424E-05  1.57513581559E-05  1.59494858512E-05  1.61501056861E-05
  1.63532490078E-05  1.65589475580E-05  1.67672334774E-05  1.69781393112E-05
  1.71916980137E-05  1.74079429541E-05  1.76269079210E-05  1.78486271281E-05
  1.80731352195E-05  1.83004672750E-05  1.85306588158E-05  1.87637458097E-05
  1.89997646771E-05  1.92387522964E-05  1.94807460099E-05  1.97257836295E-05
  1.99739034430E-05  2.02251442195E-05  2.04795452160E-05  2.07371461831E-05
  2.09979873714E-05  2.12621095380E-05  2.15295539525E-05  2.18003624036E-05
  2.20745772057E-05  2.23522412053E-05  2.26333977881E-05  2.29180908854E-05
  2.32063649810E-05  2.34982651184E-05  2.37938369075E-05  2.40931265320E-05
  2.43961807565E-05  2.47030469339E-05  2.50137730127E-05  2.53284075444E-05
  2.56469996913E-05  2.59695992341E-05  2.62962565796E-05  2.66270227686E-05
  2.69619494842E-05  2.73010890592E-05  2.76444944850E-05  2.79922194192E-05
  2.83443181947E-05  2.87008458276E-05  2.90618580260E-05  2.94274111988E-05
  2.97975624646E-05  3.01723696601E-05  3.05518913497E-05  3.09361868345E-05
  3.13253161615E-05  3.17193401328E-05  3.21183203156E-05  3.25223190512E-05
  3.29313994654E-05  3.33456254777E-05  3.37650618119E-05  3.41897740057E-05
  3.46198284212E-05  3.50552922553E-05  3.54962335502E-05  3.59427212038E-05
  3.63948249807E-05  3.68526155230E-05  3.73161643615E-05  3.77855439266E-05
  3.82608275599E-05  3.87420895252E-05  3.92294050209E-05  3.97228501909E-05
  4.02225021371E-05  4.07284389311E-05  4.12407396265E-05  4.17594842714E-05
  4.22847539207E-05  4.28166306488E-05  4.33551975625E-05  4.39005388141E-05
  4.44527396142E-05  4.50118862452E-05  4.55780660751E-05  4.61513675706E-05
  4.67318803111E-05  4.73196950030E-05  4.79149034935E-05  4.85175987852E-05
  4.91278750504E-05  4.97458276460E-05  5.03715531284E-05  5.10051492684E-05