<PP_INFO>
Generated using modified version of ld1 code for metaGGA
Author: Xiaofei Wang/Carlo Sbraccia   Generation date: 2005
Info: automatically converted from PWSCF format                                 
    0        The Pseudo was generated with a Non-Relativistic Calculation
nl pn  l   occ               Rcut            Rcut US             E pseu
3S  0  0  2.00      0.00000000000      0.00000000000      0.00000000000
3P  0  1  2.00      0.00000000000      0.00000000000      0.00000000000
3D  0  2  1.00      0.00000000000      0.00000000000      0.00000000000
</PP_INFO>


<PP_HEADER>
   0                   Version Number
  Si                   Element
   NC                  Norm - Conserving pseudopotential
    F                  Nonlinear Core Correction
 SLA  PW   TPSS TPSS   META Exchange-Correlation functional
    4.00000000000      Z valence
    0.00000000000      Total energy
  0.0000000  0.0000000 Suggested cutoff for wfc and rho
    1                  Max angular momentum component
 1593                  Number of points in mesh
    3    2             Number of Wavefunctions, Number of Projectors
 Wavefunctions         nl  l   occ
                       3S  0  2.00
                       3P  1  2.00
                       3D  2  1.00
</PP_HEADER>


<PP_MESH>
  <PP_R>
  1.77053726905E-04  1.78475837578E-04  1.79909370766E-04  1.81354418215E-04
  1.82811072409E-04  1.84279426573E-04  1.85759574684E-04  1.87251611471E-04
  1.88755632426E-04  1.90271733805E-04  1.91800012640E-04  1.93340566741E-04
  1.94893494704E-04  1.96458895918E-04  1.98036870568E-04  1.99627519645E-04
  2.01230944952E-04  2.02847249108E-04  2.04476535557E-04  2.06118908575E-04
  2.07774473272E-04  2.09443335607E-04  2.11125602387E-04  2.12821381278E-04
  2.14530780809E-04  2.16253910384E-04  2.17990880283E-04  2.19741801672E-04
  2.21506786612E-04  2.23285948062E-04  2.25079399889E-04  2.26887256874E-04
  2.28709634721E-04  2.30546650063E-04  2.32398420469E-04  2.34265064453E-04
  2.36146701481E-04  2.38043451979E-04  2.39955437339E-04  2.41882779929E-04
  2.43825603100E-04  2.45784031192E-04  2.47758189546E-04  2.49748204509E-04
  2.51754203442E-04  2.53776314730E-04  2.55814667789E-04  2.57869393074E-04
  2.59940622088E-04  2.62028487391E-04  2.64133122606E-04  2.66254662431E-04
  2.68393242646E-04  2.70549000119E-04  2.72722072822E-04  2.74912599829E-04
  2.77120721337E-04  2.79346578666E-04  2.81590314271E-04  2.83852071753E-04
  2.86131995864E-04  2.88430232520E-04  2.90746928810E-04  2.93082233002E-04
  2.95436294557E-04  2.97809264136E-04  3.00201293610E-04  3.02612536068E-04
  3.05043145833E-04  3.07493278462E-04  3.09963090767E-04  3.12452740815E-04
  3.14962387946E-04  3.17492192776E-04  3.20042317215E-04  3.22612924472E-04
  3.25204179066E-04  3.27816246839E-04  3.30449294963E-04  3.33103491955E-04
  3.35779007685E-04  3.38476013385E-04  3.41194681665E-04  3.43935186522E-04
  3.46697703348E-04  3.49482408946E-04  3.52289481537E-04  3.55119100775E-04
  3.57971447756E-04  3.60846705033E-04  3.63745056621E-04  3.66666688018E-04
  3.69611786208E-04  3.72580539678E-04  3.75573138430E-04  3.78589773991E-04
  3.81630639426E-04  3.84695929353E-04  3.87785839951E-04  3.90900568975E-04
  3.94040315769E-04  3.97205281277E-04  4.00395668059E-04  4.03611680300E-04
  4.06853523827E-04  4.10121406118E-04  4.13415536319E-04  4.16736125256E-04
  4.20083385447E-04  4.23457531117E-04  4.26858778215E-04  4.30287344420E-04
  4.33743449161E-04  4.37227313632E-04  4.40739160800E-04  4.44279215424E-04
  4.47847704071E-04  4.51444855123E-04  4.55070898799E-04  4.58726067169E-04
  4.62410594164E-04  4.66124715594E-04  4.69868669165E-04  4.73642694492E-04
  4.77447033112E-04  4.81281928506E-04  4.85147626108E-04  4.89044373323E-04
  4.92972419545E-04  4.96932016170E-04  5.00923416613E-04  5.04946876327E-04
  5.09002652812E-04  5.13091005642E-04  5.17212196470E-04  5.21366489056E-04
  5.25554149275E-04  5.29775445140E-04  5.34030646813E-04  5.38320026630E-04
  5.42643859113E-04  5.47002420987E-04  5.51395991204E-04  5.55824850952E-04
  5.60289283680E-04  5.64789575114E-04  5.69326013273E-04  5.73898888491E-04
  5.78508493435E-04  5.83155123119E-04  5.87839074930E-04  5.92560648643E-04
  5.97320146439E-04  6.02117872929E-04  6.06954135168E-04  6.11829242678E-04
  6.16743507470E-04  6.21697244056E-04  6.26690769478E-04  6.31724403323E-04
  6.36798467746E-04  6.41913287488E-04  6.47069189899E-04  6.52266504959E-04
  6.57505565299E-04  6.62786706219E-04  6.68110265714E-04  6.73476584495E-04
  6.78886006007E-04  6.84338876455E-04  6.89835544824E-04  6.95376362904E-04
  7.00961685309E-04  7.06591869500E-04  7.12267275813E-04  7.17988267474E-04
  7.23755210629E-04  7.29568474365E-04  7.35428430733E-04  7.41335454770E-04
  7.47289924530E-04  7.53292221101E-04  7.59342728630E-04  7.65441834354E-04
  7.71589928616E-04  7.77787404897E-04  7.84034659837E-04  7.90332093263E-04
  7.96680108213E-04  8.03079110962E-04  8.09529511048E-04  8.16031721299E-04
  8.22586157858E-04  8.29193240213E-04  8.35853391218E-04  8.42567037125E-04
  8.49334607610E-04  8.56156535800E-04  8.63033258301E-04  8.69965215225E-04
  8.76952850219E-04  8.83996610495E-04  8.91096946856E-04  8.98254313726E-04
  9.05469169179E-04  9.12741974967E-04  9.20073196553E-04  9.27463303138E-04
  9.34912767691E-04  9.42422066980E-04  9.49991681603E-04  9.57622096018E-04
  9.65313798574E-04  9.73067281543E-04  9.80883041149E-04  9.88761577606E-04
  9.96703395140E-04  1.00470900203E-03  1.01277891064E-03  1.02091363745E-03
  1.02911370308E-03  1.03737963234E-03  1.04571195424E-03  1.05411120207E-03
  1.06257791338E-03  1.07111263003E-03  1.07971589826E-03  1.08838826868E-03
  1.09713029631E-03  1.10594254066E-03  1.11482556571E-03  1.12377993998E-03
  1.13280623655E-03  1.14190503310E-03  1.15107691196E-03  1.16032246014E-03
  1.16964226935E-03  1.17903693607E-03  1.18850706155E-03  1.19805325189E-03
  1.20767611805E-03  1.21737627589E-03  1.22715434623E-03  1.23701095487E-03
  1.24694673263E-03  1.25696231540E-03  1.26705834419E-03  1.27723546515E-03
  1.28749432962E-03  1.29783559416E-03  1.30825992062E-03  1.31876797617E-03
  1.32936043331E-03  1.34003796998E-03  1.35080126953E-03  1.36165102083E-03
  1.37258791826E-03  1.38361266178E-03  1.39472595698E-03  1.40592851512E-03
  1.41722105317E-03  1.42860429385E-03  1.44007896569E-03  1.45164580307E-03
  1.46330554628E-03  1.47505894155E-03  1.48690674109E-03  1.49884970317E-03
  1.51088859215E-03  1.52302417851E-03  1.53525723893E-03  1.54758855635E-03
  1.56001891996E-03  1.57254912531E-03  1.58517997435E-03  1.59791227544E-03
  1.61074684347E-03  1.62368449984E-03  1.63672607257E-03  1.64987239633E-03
  1.66312431249E-03  1.67648266917E-03  1.68994832132E-03  1.70352213073E-03
  1.71720496615E-03  1.73099770326E-03  1.74490122482E-03  1.75891642066E-03
  1.77304418774E-03  1.78728543026E-03  1.80164105966E-03  1.81611199470E-03
  1.83069916153E-03  1.84540349372E-03  1.86022593237E-03  1.87516742612E-03
  1.89022893122E-03  1.90541141162E-03  1.92071583900E-03  1.93614319285E-03
  1.95169446052E-03  1.96737063731E-03  1.98317272648E-03  1.99910173939E-03
  2.01515869549E-03  2.03134462244E-03  2.04766055614E-03  2.06410754081E-03
  2.08068662907E-03  2.09739888198E-03  2.11424536914E-03  2.13122716872E-03
  2.14834536757E-03  2.16560106125E-03  2.18299535414E-03  2.20052935948E-03
  2.21820419945E-03  2.23602100525E-03  2.25398091715E-03  2.27208508460E-03
  2.29033466628E-03  2.30873083015E-03  2.32727475358E-03  2.34596762340E-03
  2.36481063594E-03  2.38380499717E-03  2.40295192273E-03  2.42225263803E-03
  2.44170837834E-03  2.46132038881E-03  2.48108992462E-03  2.50101825104E-03
  2.52110664348E-03  2.54135638761E-03  2.56176877941E-03  2.58234512529E-03
  2.60308674214E-03  2.62399495742E-03  2.64507110929E-03  2.66631654660E-03
  2.68773262908E-03  2.70932072737E-03  2.73108222311E-03  2.75301850905E-03
  2.77513098911E-03  2.79742107850E-03  2.81989020379E-03  2.84253980302E-03
  2.86537132577E-03  2.88838623326E-03  2.91158599845E-03  2.93497210615E-03
  2.95854605306E-03  2.98230934792E-03  3.00626351161E-03  3.03041007718E-03
  3.05475059003E-03  3.07928660797E-03  3.10401970129E-03  3.12895145294E-03
  3.15408345855E-03  3.17941732658E-03  3.20495467840E-03  3.23069714841E-03
  3.25664638415E-03  3.28280404636E-03  3.30917180915E-03  3.33575136007E-03
  3.36254440022E-03  3.38955264435E-03  3.41677782101E-03  3.44422167262E-03
  3.47188595559E-03  3.49977244045E-03  3.52788291194E-03  3.55621916913E-03
  3.58478302557E-03  3.61357630935E-03  3.64260086324E-03  3.67185854483E-03
  3.70135122662E-03  3.73108079616E-03  3.76104915613E-03  3.79125822454E-03
  3.82170993477E-03  3.85240623574E-03  3.88334909202E-03  3.91454048397E-03
  3.94598240785E-03  3.97767687595E-03  4.00962591672E-03  4.04183157493E-03
  4.07429591173E-03  4.10702100486E-03  4.14000894874E-03  4.17326185461E-03
  4.20678185066E-03  4.24057108218E-03  4.27463171170E-03  4.30896591910E-03
  4.34357590180E-03  4.37846387484E-03  4.41363207106E-03  4.44908274124E-03
  4.48481815423E-03  4.52084059712E-03  4.55715237534E-03  4.59375581288E-03
  4.63065325235E-03  4.66784705522E-03  4.70533960189E-03  4.74313329189E-03
  4.78123054405E-03  4.81963379660E-03  4.85834550735E-03  4.89736815388E-03
  4.93670423363E-03  4.97635626415E-03  5.01632678316E-03  5.05661834880E-03
  5.09723353974E-03  5.13817495537E-03  5.17944521595E-03  5.22104696278E-03
  5.26298285841E-03  5.30525558674E-03  5.34786785323E-03  5.39082238510E-03
  5.43412193143E-03  5.47776926342E-03  5.52176717452E-03  5.56611848060E-03
  5.61082602016E-03  5.65589265451E-03  5.70132126791E-03  5.74711476782E-03
  5.79327608504E-03  5.83980817391E-03  5.88671401249E-03  5.93399660278E-03
  5.98165897087E-03  6.02970416718E-03  6.07813526662E-03  6.12695536879E-03
  6.17616759819E-03  6.22577510443E-03  6.27578106240E-03  6.32618867250E-03
  6.37700116083E-03  6.42822177941E-03  6.47985380639E-03  6.53190054621E-03
  6.58436532991E-03  6.63725151523E-03  6.69056248691E-03  6.74430165688E-03
  6.79847246445E-03  6.85307837659E-03  6.90812288807E-03  6.96360952179E-03
  7.01954182888E-03  7.07592338905E-03  7.13275781074E-03  7.19004873135E-03
  7.24779981754E-03  7.30601476540E-03  7.36469730069E-03  7.42385117912E-03
  7.48348018656E-03  7.54358813929E-03  7.60417888423E-03  7.66525629922E-03
  7.72682429323E-03  7.78888680663E-03  7.85144781144E-03  7.91451131160E-03
  7.97808134317E-03  8.04216197468E-03  8.10675730730E-03  8.17187147516E-03
  8.23750864558E-03  8.30367301936E-03  8.37036883105E-03  8.43760034920E-03
  8.50537187666E-03  8.57368775082E-03  8.64255234392E-03  8.71197006332E-03
  8.78194535178E-03  8.85248268774E-03  8.92358658561E-03  8.99526159607E-03
  9.06751230635E-03  9.14034334050E-03  9.21375935975E-03  9.28776506274E-03
  9.36236518587E-03  9.43756450357E-03  9.51336782861E-03  9.58978001245E-03
  9.66680594547E-03  9.74445055738E-03  9.82271881745E-03  9.90161573487E-03
  9.98114635909E-03  1.00613157801E-02  1.01421291287E-02  1.02235915771E-02
  1.03057083388E-02  1.03884846693E-02  1.04719258665E-02  1.05560372704E-02
  1.06408242643E-02  1.07262922747E-02  1.08124467714E-02  1.08992932683E-02
  1.09868373238E-02  1.10750845406E-02  1.11640405666E-02  1.12537110950E-02
  1.13441018648E-02  1.14352186609E-02  1.15270673150E-02  1.16196537053E-02
  1.17129837573E-02  1.18070634444E-02  1.19018987875E-02  1.19974958563E-02
  1.20938607688E-02  1.21909996926E-02  1.22889188445E-02  1.23876244914E-02
  1.24871229505E-02  1.25874205898E-02  1.26885238282E-02  1.27904391365E-02
  1.28931730373E-02  1.29967321056E-02  1.31011229691E-02  1.32063523090E-02
  1.33124268600E-02  1.34193534108E-02  1.35271388048E-02  1.36357899403E-02
  1.37453137710E-02  1.38557173065E-02  1.39670076126E-02  1.40791918120E-02
  1.41922770845E-02  1.43062706675E-02  1.44211798568E-02  1.45370120064E-02
  1.46537745299E-02  1.47714748998E-02  1.48901206493E-02  1.50097193715E-02
  1.51302787209E-02  1.52518064133E-02  1.53743102265E-02  1.54977980008E-02
  1.56222776394E-02  1.57477571092E-02  1.58742444408E-02  1.60017477295E-02
  1.61302751355E-02  1.62598348846E-02  1.63904352686E-02  1.65220846462E-02
  1.66547914428E-02  1.67885641517E-02  1.69234113344E-02  1.70593416213E-02
  1.71963637118E-02  1.73344863755E-02  1.74737184523E-02  1.76140688530E-02
  1.77555465601E-02  1.78981606282E-02  1.80419201848E-02  1.81868344303E-02
  1.83329126395E-02  1.84801641614E-02  1.86285984201E-02  1.87782249154E-02
  1.89290532236E-02  1.90810929976E-02  1.92343539680E-02  1.93888459437E-02
  1.95445788122E-02  1.97015625403E-02  1.98598071752E-02  2.00193228446E-02
  2.01801197574E-02  2.03422082048E-02  2.05055985604E-02  2.06703012814E-02
  2.08363269087E-02  2.10036860680E-02  2.11723894704E-02  2.13424479129E-02
  2.15138722794E-02  2.16866735411E-02  2.18608627573E-02  2.20364510762E-02
  2.22134497354E-02  2.23918700630E-02  2.25717234780E-02  2.27530214909E-02
  2.29357757050E-02  2.31199978166E-02  2.33056996159E-02  2.34928929880E-02
  2.36815899132E-02  2.38718024683E-02  2.40635428268E-02  2.42568232604E-02
  2.44516561388E-02  2.46480539317E-02  2.48460292084E-02  2.50455946394E-02
  2.52467629971E-02  2.54495471562E-02  2.56539600950E-02  2.58600148960E-02
  2.60677247467E-02  2.62771029408E-02  2.64881628784E-02  2.67009180675E-02
  2.69153821245E-02  2.71315687751E-02  2.73494918554E-02  2.75691653124E-02
  2.77906032055E-02  2.80138197067E-02  2.82388291019E-02  2.84656457918E-02
  2.86942842927E-02  2.89247592376E-02  2.91570853770E-02  2.93912775798E-02
  2.96273508344E-02  2.98653202496E-02  3.01052010554E-02  3.03470086044E-02
  3.05907583723E-02  3.08364659592E-02  3.10841470905E-02  3.13338176177E-02
  3.15854935200E-02  3.18391909046E-02  3.20949260084E-02  3.23527151983E-02
  3.26125749731E-02  3.28745219638E-02  3.31385729351E-02  3.34047447864E-02
  3.36730545528E-02  3.39435194062E-02  3.42161566563E-02  3.44909837522E-02
  3.47680182829E-02  3.50472779785E-02  3.53287807119E-02  3.56125444994E-02
  3.58985875018E-02  3.61869280261E-02  3.64775845262E-02  3.67705756041E-02
  3.70659200114E-02  3.73636366502E-02  3.76637445745E-02  3.79662629913E-02
  3.82712112620E-02  3.85786089032E-02  3.88884755885E-02  3.92008311496E-02
  3.95156955772E-02  3.98330890228E-02  4.01530317998E-02  4.04755443844E-02
  4.08006474178E-02  4.11283617065E-02  4.14587082243E-02  4.17917081137E-02
  4.21273826866E-02  4.24657534264E-02  4.28068419890E-02  4.31506702040E-02
  4.34972600766E-02  4.38466337888E-02  4.41988137004E-02  4.45538223513E-02
  4.49116824619E-02  4.52724169356E-02  4.56360488594E-02  4.60026015059E-02
  4.63720983347E-02  4.67445629935E-02  4.71200193203E-02  4.74984913445E-02
  4.78800032883E-02  4.82645795686E-02  4.86522447985E-02  4.90430237887E-02
  4.94369415492E-02  4.98340232908E-02  5.02342944269E-02  5.06377805750E-02
  5.10445075583E-02  5.14545014075E-02  5.18677883624E-02  5.22843948735E-02
  5.27043476036E-02  5.31276734300E-02  5.35543994456E-02  5.39845529611E-02
  5.44181615064E-02  5.48552528326E-02  5.52958549137E-02  5.57399959484E-02
  5.61877043619E-02  5.66390088076E-02  5.70939381692E-02  5.75525215624E-02
  5.80147883366E-02  5.84807680770E-02  5.89504906065E-02  5.94239859876E-02
  5.99012845241E-02  6.03824167632E-02  6.08674134976E-02  6.13563057672E-02
  6.18491248614E-02  6.23459023206E-02  6.28466699389E-02  6.33514597655E-02
  6.38603041072E-02  6.43732355301E-02  6.48902868621E-02  6.54114911945E-02
  6.59368818848E-02  6.64664925579E-02  6.70003571093E-02  6.75385097065E-02
  6.80809847913E-02  6.86278170823E-02  6.91790415771E-02  6.97346935541E-02
  7.02948085754E-02  7.08594224884E-02  7.14285714286E-02  7.20022918217E-02
  7.25806203861E-02  7.31635941350E-02  7.37512503789E-02  7.43436267280E-02
  7.49407610946E-02  7.55426916955E-02  7.61494570544E-02  7.67610960046E-02
  7.73776476911E-02  7.79991515734E-02  7.86256474281E-02  7.92571753511E-02
  7.98937757604E-02  8.05354893985E-02  8.11823573355E-02  8.18344209711E-02
  8.24917220375E-02  8.31543026023E-02  8.38222050708E-02  8.44954721891E-02
  8.51741470465E-02  8.58582730783E-02  8.65478940689E-02  8.72430541543E-02
  8.79437978249E-02  8.86501699286E-02  8.93622156735E-02  9.00799806306E-02
  9.08035107372E-02  9.15328522996E-02  9.22680519957E-02  9.30091568786E-02
  9.37562143794E-02  9.45092723098E-02  9.52683788660E-02  9.60335826309E-02
  9.68049325778E-02  9.75824780735E-02  9.83662688811E-02  9.91563551635E-02
  9.99527874865E-02  1.00755616822E-01  1.01564894551E-01  1.02380672469E-01
  1.03203002784E-01  1.04031938127E-01  1.04867531549E-01  1.05709836529E-01
  1.06558906974E-01  1.07414797226E-01  1.08277562062E-01  1.09147256699E-01
  1.10023936797E-01  1.10907658465E-01  1.11798478261E-01  1.12696453198E-01
  1.13601640746E-01  1.14514098838E-01  1.15433885871E-01  1.16361060712E-01
  1.17295682701E-01  1.18237811654E-01  1.19187507867E-01  1.20144832121E-01
  1.21109845686E-01  1.22082610322E-01  1.23063188286E-01  1.24051642337E-01
  1.25048035735E-01  1.26052432251E-01  1.27064896164E-01  1.28085492275E-01
  1.29114285901E-01  1.30151342885E-01  1.31196729600E-01  1.32250512950E-01
  1.33312760378E-01  1.34383539868E-01  1.35462919950E-01  1.36550969706E-01
  1.37647758770E-01  1.38753357338E-01  1.39867836168E-01  1.40991266588E-01
  1.42123720496E-01  1.43265270372E-01  1.44415989273E-01  1.45575950847E-01
  1.46745229332E-01  1.47923899561E-01  1.49112036970E-01  1.50309717601E-01
  1.51517018105E-01  1.52734015750E-01  1.53960788424E-01  1.55197414641E-01
  1.56443973545E-01  1.57700544917E-01  1.58967209178E-01  1.60244047395E-01
  1.61531141285E-01  1.62828573223E-01  1.64136426246E-01  1.65454784056E-01
  1.66783731028E-01  1.68123352217E-01  1.69473733357E-01  1.70834960874E-01
  1.72207121887E-01  1.73590304214E-01  1.74984596381E-01  1.76390087621E-01
  1.77806867886E-01  1.79235027853E-01  1.80674658922E-01  1.82125853231E-01
  1.83588703656E-01  1.85063303822E-01  1.86549748102E-01  1.88048131629E-01
  1.89558550301E-01  1.91081100785E-01  1.92615880525E-01  1.94162987747E-01
  1.95722521466E-01  1.97294581494E-01  1.98879268442E-01  2.00476683731E-01
  2.02086929597E-01  2.03710109094E-01  2.05346326109E-01  2.06995685358E-01
  2.08658292402E-01  2.10334253648E-01  2.12023676357E-01  2.13726668655E-01
  2.15443339532E-01  2.17173798856E-01  2.18918157378E-01  2.20676526737E-01
  2.22449019468E-01  2.24235749013E-01  2.26036829722E-01  2.27852376865E-01
  2.29682506639E-01  2.31527336171E-01  2.33386983532E-01  2.35261567739E-01
  2.37151208767E-01  2.39056027553E-01  2.40976146007E-01  2.42911687016E-01
  2.44862774456E-01  2.46829533197E-01  2.48812089113E-01  2.50810569087E-01
  2.52825101023E-01  2.54855813853E-01  2.56902837541E-01  2.58966303098E-01
  2.61046342587E-01  2.63143089132E-01  2.65256676923E-01  2.67387241233E-01
  2.69534918417E-01  2.71699845928E-01  2.73882162322E-01  2.76082007268E-01
  2.78299521557E-01  2.80534847110E-01  2.82788126989E-01  2.85059505404E-01
  2.87349127725E-01  2.89657140489E-01  2.91983691408E-01  2.94328929383E-01
  2.96693004511E-01  2.99076068091E-01  3.01478272643E-01  3.03899771906E-01
  3.06340720859E-01  3.08801275722E-01  3.11281593973E-01  3.13781834351E-01
  3.16302156875E-01  3.18842722844E-01  3.21403694856E-01  3.23985236815E-01
  3.26587513939E-01  3.29210692775E-01  3.31854941209E-01  3.34520428471E-01
  3.37207325156E-01  3.39915803224E-01  3.42646036020E-01  3.45398198279E-01
  3.48172466140E-01  3.50969017159E-01  3.53788030314E-01  3.56629686024E-01
  3.59494166155E-01  3.62381654036E-01  3.65292334467E-01  3.68226393731E-01
  3.71184019610E-01  3.74165401394E-01  3.77170729890E-01  3.80200197443E-01
  3.83253997937E-01  3.86332326819E-01  3.89435381101E-01  3.92563359380E-01
  3.95716461848E-01  3.98894890305E-01  4.02098848172E-01  4.05328540501E-01
  4.08584173996E-01  4.11865957017E-01  4.15174099600E-01  4.18508813467E-01
  4.21870312041E-01  4.25258810459E-01  4.28674525586E-01  4.32117676029E-01
  4.35588482151E-01  4.39087166085E-01  4.42613951746E-01  4.46169064852E-01
  4.49752732930E-01  4.53365185337E-01  4.57006653270E-01  4.60677369786E-01
  4.64377569810E-01  4.68107490157E-01  4.71867369543E-01  4.75657448601E-01
  4.79477969899E-01  4.83329177951E-01  4.87211319235E-01  4.91124642210E-01
  4.95069397329E-01  4.99045837059E-01  5.03054215893E-01  5.07094790368E-01
  5.11167819083E-01  5.15273562713E-01  5.19412284027E-01  5.23584247904E-01
  5.27789721352E-01  5.32028973522E-01  5.36302275728E-01  5.40609901463E-01
  5.44952126416E-01  5.49329228491E-01  5.53741487825E-01  5.58189186802E-01
  5.62672610078E-01  5.67192044593E-01  5.71747779593E-01  5.76340106645E-01
  5.80969319661E-01  5.85635714912E-01  5.90339591049E-01  5.95081249121E-01
  5.99860992595E-01  6.04679127379E-01  6.09535961832E-01  6.14431806796E-01
  6.19366975605E-01  6.24341784111E-01  6.29356550705E-01  6.34411596333E-01
  6.39507244520E-01  6.44643821388E-01  6.49821655681E-01  6.55041078782E-01
  6.60302424736E-01  6.65606030270E-01  6.70952234817E-01  6.76341380537E-01
  6.81773812335E-01  6.87249877890E-01  6.92769927672E-01  6.98334314966E-01
  7.03943395895E-01  7.09597529441E-01  7.15297077471E-01  7.21042404758E-01
  7.26833879005E-01  7.32671870869E-01  7.38556753982E-01  7.44488904980E-01
  7.50468703522E-01  7.56496532317E-01  7.62572777148E-01  7.68697826897E-01
  7.74872073570E-01  7.81095912320E-01  7.87369741474E-01  7.93693962561E-01
  8.00068980333E-01  8.06495202792E-01  8.12973041220E-01  8.19502910200E-01
  8.26085227645E-01  8.32720414828E-01  8.39408896401E-01  8.46151100430E-01
  8.52947458418E-01  8.59798405334E-01  8.66704379643E-01  8.73665823327E-01
  8.80683181922E-01  8.87756904541E-01  8.94887443906E-01  9.02075256372E-01
  9.09320801962E-01  9.16624544394E-01  9.23986951110E-01  9.31408493306E-01
  9.38889645964E-01  9.46430887879E-01  9.54032701695E-01  9.61695573929E-01
  9.69419995008E-01  9.77206459297E-01  9.85055465133E-01  9.92967514856E-01
  1.00094311484E+00  1.00898277552E+00  1.01708701145E+00  1.02525634129E+00
  1.03349128788E+00  1.04179237828E+00  1.05016014374E+00  1.05859511980E+00
  1.06709784632E+00  1.07566886746E+00  1.08430873178E+00  1.09301799223E+00
  1.10179720620E+00  1.11064693557E+00  1.11956774672E+00  1.12856021059E+00
  1.13762490270E+00  1.14676240319E+00  1.15597329686E+00  1.16525817323E+00
  1.17461762651E+00  1.18405225572E+00  1.19356266468E+00  1.20314946205E+00
  1.21281326141E+00  1.22255468122E+00  1.23237434496E+00  1.24227288107E+00
  1.25225092307E+00  1.26230910956E+00  1.27244808426E+00  1.28266849607E+00
  1.29297099910E+00  1.30335625272E+00  1.31382492159E+00  1.32437767570E+00
  1.33501519043E+00  1.34573814659E+00  1.35654723045E+00  1.36744313379E+00
  1.37842655396E+00  1.38949819391E+00  1.40065876221E+00  1.41190897315E+00
  1.42324954675E+00  1.43468120880E+00  1.44620469094E+00  1.45782073067E+00
  1.46953007143E+00  1.48133346262E+00  1.49323165965E+00  1.50522542402E+00
  1.51731552333E+00  1.52950273135E+00  1.54178782806E+00  1.55417159973E+00
  1.56665483891E+00  1.57923834453E+00  1.59192292194E+00  1.60470938297E+00
  1.61759854594E+00  1.63059123577E+00  1.64368828400E+00  1.65689052884E+00
  1.67019881524E+00  1.68361399493E+00  1.69713692650E+00  1.71076847540E+00
  1.72450951408E+00  1.73836092195E+00  1.75232358551E+00  1.76639839838E+00
  1.78058626135E+00  1.79488808245E+00  1.80930477700E+00  1.82383726767E+00
  1.83848648455E+00  1.85325336519E+00  1.86813885468E+00  1.88314390570E+00
  1.89826947856E+00  1.91351654132E+00  1.92888606980E+00  1.94437904764E+00
  1.95999646640E+00  1.97573932561E+00  1.99160863281E+00  2.00760540364E+00
  2.02373066190E+00  2.03998543961E+00  2.05637077709E+00  2.07288772300E+00
  2.08953733443E+00  2.10632067697E+00  2.12323882474E+00  2.14029286053E+00
  2.15748387579E+00  2.17481297075E+00  2.19228125449E+00  2.20988984498E+00
  2.22763986916E+00  2.24553246307E+00  2.26356877181E+00  2.28174994973E+00
  2.30007716043E+00  2.31855157685E+00  2.33717438136E+00  2.35594676583E+00
  2.37486993169E+00  2.39394509005E+00  2.41317346170E+00  2.43255627728E+00
  2.45209477730E+00  2.47179021221E+00  2.49164384255E+00  2.51165693894E+00
  2.53183078223E+00  2.55216666355E+00  2.57266588442E+00  2.59332975677E+00
  2.61415960312E+00  2.63515675657E+00  2.65632256096E+00  2.67765837090E+00
  2.69916555188E+00  2.72084548039E+00  2.74269954393E+00  2.76472914118E+00
  2.78693568204E+00  2.80932058773E+00  2.83188529090E+00  2.85463123569E+00
  2.87755987786E+00  2.90067268484E+00  2.92397113587E+00  2.94745672204E+00
  2.97113094646E+00  2.99499532426E+00  3.01905138279E+00  3.04330066164E+00
  3.06774471277E+00  3.09238510061E+00  3.11722340215E+00  3.14226120705E+00
  3.16750011774E+00  3.19294174952E+00  3.21858773066E+00  3.24443970252E+00
  3.27049931962E+00  3.29676824980E+00  3.32324817427E+00  3.34994078776E+00
  3.37684779860E+00  3.40397092885E+00  3.43131191441E+00  3.45887250510E+00
  3.48665446481E+00  3.51465957159E+00  3.54288961779E+00  3.57134641013E+00
  3.60003176986E+00  3.62894753286E+00  3.65809554973E+00  3.68747768597E+00
  3.71709582204E+00  3.74695185351E+00  3.77704769117E+00  3.80738526118E+00
  3.83796650515E+00  3.86879338028E+00  3.89986785951E+00  3.93119193161E+00
  3.96276760134E+00  3.99459688955E+00  4.02668183332E+00  4.05902448610E+00
  4.09162691784E+00  4.12449121510E+00  4.15761948120E+00  4.19101383637E+00
  4.22467641785E+00  4.25860938006E+00  4.29281489473E+00  4.32729515102E+00
  4.36205235568E+00  4.39708873317E+00  4.43240652585E+00  4.46800799405E+00
  4.50389541630E+00  4.54007108938E+00  4.57653732857E+00  4.61329646770E+00
  4.65035085939E+00  4.68770287512E+00  4.72535490543E+00  4.76330936007E+00
  4.80156866813E+00  4.84013527823E+00  4.87901165863E+00  4.91820029745E+00
  4.95770370277E+00  4.99752440281E+00  5.03766494613E+00  5.07812790172E+00
  5.11891585922E+00  5.16003142909E+00  5.20147724274E+00  5.24325595270E+00
  5.28537023283E+00  5.32782277846E+00  5.37061630657E+00  5.41375355596E+00
  5.45723728742E+00  5.50107028393E+00  5.54525535081E+00  5.58979531593E+00
  5.63469302986E+00  5.67995136607E+00  5.72557322110E+00  5.77156151478E+00
  5.81791919035E+00  5.86464921475E+00  5.91175457869E+00  5.95923829695E+00
  6.00710340849E+00  6.05535297670E+00  6.10399008957E+00  6.15301785989E+00
  6.20243942545E+00  6.25225794925E+00  6.30247661969E+00  6.35309865079E+00
  6.40412728237E+00  6.45556578028E+00  6.50741743661E+00  6.55968556987E+00
  6.61237352525E+00  6.66548467479E+00  6.71902241762E+00  6.77299018019E+00
  6.82739141643E+00  6.88222960806E+00  6.93750826473E+00  6.99323092430E+00
  7.04940115304E+00  7.10602254585E+00  7.16309872654E+00  7.22063334798E+00
  7.27863009243E+00  7.33709267169E+00  7.39602482738E+00  7.45543033118E+00
  7.51531298507E+00  7.57567662156E+00  7.63652510394E+00  7.69786232653E+00
  7.75969221494E+00  7.82201872629E+00  7.88484584952E+00  7.94817760557E+00
  8.01201804770E+00  8.07637126172E+00  8.14124136626E+00  8.20663251302E+00
  8.27254888707E+00  8.33899470707E+00  8.40597422558E+00  8.47349172930E+00
  8.54155153939E+00  8.61015801170E+00  8.67931553705E+00  8.74902854156E+00
  8.81930148689E+00  8.89013887052E+00  8.96154522607E+00  9.03352512358E+00
  9.10608316978E+00  9.17922400841E+00  9.25295232050E+00  9.32727282471E+00
  9.40219027756E+00  9.47770947380E+00  9.55383524667E+00  9.63057246827E+00
  9.70792604979E+00  9.78590094189E+00  9.86450213499E+00  9.94373465960E+00
  1.00236035866E+01  1.01041140277E+01  1.01852711355E+01  1.02670801041E+01
  1.03495461694E+01  1.04326746092E+01  1.05164707437E+01  1.06009399359E+01
  1.06860875919E+01  1.07719191611E+01  1.08584401369E+01  1.09456560565E+01
  1.10335725018E+01  1.11221950996E+01  1.12115295216E+01  1.13015814854E+01
  1.13923567542E+01  1.14838611378E+01  1.15761004923E+01  1.16690807213E+01
  1.17628077754E+01  1.18572876532E+01  1.19525264015E+01  1.20485301156E+01
  1.21453049396E+01  1.22428570674E+01  1.23411927422E+01  1.24403182575E+01
  1.25402399575E+01  1.26409642370E+01  1.27424975426E+01  1.28448463724E+01
  1.29480172768E+01  1.30520168587E+01  1.31568517741E+01  1.32625287325E+01
  1.33690544973E+01  1.34764358861E+01  1.35846797714E+01  1.36937930809E+01
  1.38037827978E+01  1.39146559615E+01  1.40264196680E+01  1.41390810701E+01
  1.42526473782E+01  1.43671258606E+01  1.44825238440E+01  1.45988487138E+01
  1.47161079149E+01  1.48343089520E+01  1.49534593899E+01  1.50735668543E+01
  1.51946390321E+01  1.53166836720E+01  1.54397085849E+01  1.55637216444E+01
  1.56887307874E+01  1.58147440146E+01  1.59417693907E+01  1.60698150456E+01
  1.61988891741E+01  1.63290000370E+01  1.64601559615E+01  1.65923653416E+01
  1.67256366387E+01  1.68599783823E+01  1.69953991703E+01  1.71319076696E+01
  1.72695126168E+01  1.74082228188E+01  1.75480471530E+01  1.76889945681E+01
  1.78310740850E+01  1.79742947967E+01  1.81186658693E+01  1.82641965428E+01
  1.84108961311E+01  1.85587740231E+01  1.87078396829E+01  1.88581026508E+01
  1.90095725437E+01  1.91622590558E+01  1.93161719590E+01  1.94713211038E+01
  1.96277164198E+01  1.97853679163E+01  1.99442856832E+01  2.01044798911E+01
  2.02659607926E+01  2.04287387225E+01  2.05928240987E+01  2.07582274226E+01
  2.09249592802E+01  2.10930303423E+01  2.12624513655E+01  2.14332331929E+01
  2.16053867546E+01  2.17789230684E+01  2.19538532406E+01  2.21301884670E+01
  2.23079400330E+01  2.24871193148E+01  2.26677377798E+01  2.28498069879E+01
  2.30333385914E+01  2.32183443364E+01  2.34048360634E+01  2.35928257078E+01
  2.37823253012E+01  2.39733469715E+01  2.41659029442E+01  2.43600055429E+01
  2.45556671904E+01  2.47529004088E+01  2.49517178214E+01  2.51521321524E+01
  2.53541562285E+01  2.55578029792E+01  2.57630854380E+01  2.59700167431E+01