<PP_INFO>
Generated using Vanderbilt code, version   7  3  5                              
Author: unknown    Generation date:    9    6 2004                              
Automatically converted from original format                                    
    1        The Pseudo was generated with a Scalar-Relativistic Calculation
  1.80000000000E+00    Local Potential cutoff radius
nl pn  l   occ               Rcut            Rcut US             E pseu
5S  5  0  2.00     10.00000000000      2.20000000000     -5.36479300694
5P  5  1  6.00     10.00000000000      2.40000000000     -2.89585465596
5D  5  2  3.00     10.00000000000      2.20000000000     -0.26397292394
6S  6  0  2.00     10.00000000000      2.20000000000     -0.39996547287
6P  6  1  0.00     10.00000000000      2.40000000000     -0.10229345007
</PP_INFO>


<PP_HEADER>
   0                   Version Number
  Ta                   Element
   US                  Ultrasoft pseudopotential
    T                  Nonlinear Core Correction
 SLA  PW   PBE  PBE    PBE  Exchange-Correlation functional
   13.00000000000      Z valence
 -141.34524077818      Total energy
  0.0000000  0.0000000 Suggested cutoff for wfc and rho
    2                  Max angular momentum component
  921                  Number of points in mesh
    5    6             Number of Wavefunctions, Number of Projectors
 Wavefunctions         nl  l   occ
                       5S  0  2.00
                       5P  1  6.00
                       5D  2  3.00
                       6S  0  2.00
                       6P  1  0.00
</PP_HEADER>


<PP_MESH>
  <PP_R>
  0.00000000000E+00  5.80422042191E-07  1.17076558915E-06  1.77120023515E-06
  2.38189847345E-06  3.00303574583E-06  3.63479049302E-06  4.27734420593E-06
  4.93088147780E-06  5.59559005725E-06  6.27166090219E-06  6.95928823469E-06
  7.65866959678E-06  8.37000590718E-06  9.09350151906E-06  9.82936427871E-06
  1.05778055852E-05  1.13390404514E-05  1.21132875652E-05  1.29007693528E-05
  1.37017120426E-05  1.45163457299E-05  1.53449044431E-05  1.61876262112E-05
  1.70447531318E-05  1.79165314409E-05  1.88032115835E-05  1.97050482857E-05
  2.06223006277E-05  2.15552321184E-05  2.25041107709E-05  2.34692091796E-05
  2.44508045988E-05  2.54491790217E-05  2.64646192621E-05  2.74974170362E-05
  2.85478690468E-05  2.96162770686E-05  3.07029480344E-05  3.18081941238E-05
  3.29323328526E-05  3.40756871641E-05  3.52385855218E-05  3.64213620041E-05
  3.76243563996E-05  3.88479143054E-05  4.00923872259E-05  4.13581326743E-05
  4.26455142745E-05  4.39549018666E-05  4.52866716121E-05  4.66412061029E-05
  4.80188944703E-05  4.94201324976E-05  5.08453227334E-05  5.22948746073E-05
  5.37692045475E-05  5.52687361004E-05  5.67939000524E-05  5.83451345537E-05
  5.99228852438E-05  6.15276053801E-05  6.31597559675E-05  6.48198058913E-05
  6.65082320518E-05  6.82255195011E-05  6.99721615827E-05  7.17486600731E-05
  7.35555253258E-05  7.53932764184E-05  7.72624413011E-05  7.91635569488E-05
  8.10971695153E-05  8.30638344900E-05  8.50641168578E-05  8.70985912610E-05
  8.91678421649E-05  9.12724640250E-05  9.34130614586E-05  9.55902494179E-05
  9.78046533669E-05  1.00056909461E-04  1.02347664729E-04  1.04677577262E-04
  1.07047316398E-04  1.09457562918E-04  1.11909009238E-04  1.14402359611E-04
  1.16938330329E-04  1.19517649928E-04  1.22141059395E-04  1.24809312386E-04
  1.27523175438E-04  1.30283428191E-04  1.33090863613E-04  1.35946288225E-04
  1.38850522336E-04  1.41804400276E-04  1.44808770636E-04  1.47864496516E-04
  1.50972455764E-04  1.54133541238E-04  1.57348661057E-04  1.60618738862E-04
  1.63944714083E-04  1.67327542209E-04  1.70768195061E-04  1.74267661071E-04
  1.77826945569E-04  1.81447071068E-04  1.85129077560E-04  1.88874022815E-04
  1.92682982682E-04  1.96557051402E-04  2.00497341920E-04  2.04504986206E-04
  2.08581135577E-04  2.12726961034E-04  2.16943653590E-04  2.21232424621E-04
  2.25594506207E-04  2.30031151490E-04  2.34543635032E-04  2.39133253183E-04
  2.43801324451E-04  2.48549189882E-04  2.53378213447E-04  2.58289782430E-04
  2.63285307830E-04  2.68366224765E-04  2.73533992884E-04  2.78790096787E-04
  2.84136046450E-04  2.89573377662E-04  2.95103652463E-04  3.00728459593E-04
  3.06449414952E-04  3.12268162057E-04  3.18186372524E-04  3.24205746540E-04
  3.30328013353E-04  3.36554931773E-04  3.42888290673E-04  3.49329909505E-04
  3.55881638821E-04  3.62545360805E-04  3.69322989817E-04  3.76216472938E-04
  3.83227790532E-04  3.90358956816E-04  3.97612020434E-04  4.04989065053E-04
  4.12492209954E-04  4.20123610646E-04  4.27885459482E-04  4.35779986291E-04
  4.43809459019E-04  4.51976184376E-04  4.60282508506E-04  4.68730817655E-04
  4.77323538858E-04  4.86063140638E-04  4.94952133713E-04  5.03993071719E-04
  5.13188551942E-04  5.22541216067E-04  5.32053750932E-04  5.41728889305E-04
  5.51569410666E-04  5.61578142006E-04  5.71757958639E-04  5.82111785031E-04
  5.92642595636E-04  6.03353415750E-04  6.14247322386E-04  6.25327445153E-04
  6.36596967154E-04  6.48059125907E-04  6.59717214266E-04  6.71574581376E-04
  6.83634633628E-04  6.95900835643E-04  7.08376711261E-04  7.21065844562E-04
  7.33971880888E-04  7.47098527893E-04  7.60449556609E-04  7.74028802527E-04
  7.87840166704E-04  8.01887616875E-04  8.16175188603E-04  8.30706986429E-04
  8.45487185058E-04  8.60520030556E-04  8.75809841567E-04  8.91361010558E-04
  9.07178005081E-04  9.23265369050E-04  9.39627724054E-04  9.56269770682E-04
  9.73196289871E-04  9.90412144282E-04  1.00792227970E-03  1.02573172644E-03
  1.04384560082E-03  1.06226910661E-03  1.08100753651E-03  1.10006627372E-03
  1.11945079344E-03  1.13916666448E-03  1.15921955081E-03  1.17961521325E-03
  1.20035951108E-03  1.22145840373E-03  1.24291795250E-03  1.26474432230E-03
  1.28694378344E-03  1.30952271338E-03  1.33248759862E-03  1.35584503653E-03
  1.37960173723E-03  1.40376452558E-03  1.42834034308E-03  1.45333624987E-03
  1.47875942681E-03  1.50461717748E-03  1.53091693030E-03  1.55766624070E-03
  1.58487279323E-03  1.61254440380E-03  1.64068902194E-03  1.66931473304E-03
  1.69842976073E-03  1.72804246918E-03  1.75816136555E-03  1.78879510242E-03
  1.81995248027E-03  1.85164245002E-03  1.88387411556E-03  1.91665673645E-03
  1.94999973049E-03  1.98391267648E-03  2.01840531695E-03  2.05348756097E-03
  2.08916948699E-03  2.12546134574E-03  2.16237356317E-03  2.19991674343E-03
  2.23810167197E-03  2.27693931857E-03  2.31644084054E-03  2.35661758589E-03
  2.39748109664E-03  2.43904311207E-03  2.48131557215E-03  2.52431062094E-03
  2.56804061009E-03  2.61251810237E-03  2.65775587530E-03  2.70376692483E-03
  2.75056446904E-03  2.79816195196E-03  2.84657304742E-03  2.89581166299E-03
  2.94589194397E-03  2.99682827747E-03  3.04863529650E-03  3.10132788422E-03
  3.15492117819E-03  3.20943057472E-03  3.26487173331E-03  3.32126058114E-03
  3.37861331762E-03  3.43694641909E-03  3.49627664351E-03  3.55662103533E-03
  3.61799693030E-03  3.68042196054E-03  3.74391405955E-03  3.80849146738E-03
  3.87417273588E-03  3.94097673399E-03  4.00892265322E-03  4.07803001311E-03
  4.14831866688E-03  4.21980880708E-03  4.29252097145E-03  4.36647604880E-03
  4.44169528499E-03  4.51820028904E-03  4.59601303936E-03  4.67515589005E-03
  4.75565157732E-03  4.83752322603E-03  4.92079435630E-03  5.00548889034E-03
  5.09163115923E-03  5.17924590999E-03  5.26835831264E-03  5.35899396745E-03
  5.45117891228E-03  5.54493963009E-03  5.64030305651E-03  5.73729658762E-03
  5.83594808778E-03  5.93628589765E-03  6.03833884235E-03  6.14213623972E-03
  6.24770790873E-03  6.35508417809E-03  6.46429589491E-03  6.57537443362E-03
  6.68835170492E-03  6.80326016501E-03  6.92013282485E-03  7.03900325970E-03
  7.15990561874E-03  7.28287463487E-03  7.40794563472E-03  7.53515454875E-03
  7.66453792164E-03  7.79613292272E-03  7.92997735669E-03  8.06610967446E-03
  8.20456898422E-03  8.34539506264E-03  8.48862836633E-03  8.63431004345E-03
  8.78248194552E-03  8.93318663947E-03  9.08646741984E-03  9.24236832123E-03
  9.40093413095E-03  9.56221040189E-03  9.72624346560E-03  9.89308044561E-03
  1.00627692709E-02  1.02353586899E-02  1.04108982842E-02  1.05894384828E-02
  1.07710305769E-02  1.09557267345E-02  1.11435800151E-02  1.13346443854E-02
  1.15289747344E-02  1.17266268895E-02  1.19276576324E-02  1.21321247153E-02
  1.23400868776E-02  1.25516038628E-02  1.27667364357E-02  1.29855463997E-02
  1.32080966146E-02  1.34344510149E-02  1.36646746277E-02  1.38988335919E-02
  1.41369951768E-02  1.43792278016E-02  1.46256010551E-02  1.48761857155E-02
  1.51310537709E-02  1.53902784401E-02  1.56539341932E-02  1.59220967734E-02
  1.61948432187E-02  1.64722518838E-02  1.67544024629E-02  1.70413760124E-02
  1.73332549742E-02  1.76301231995E-02  1.79320659728E-02  1.82391700364E-02
  1.85515236154E-02  1.88692164429E-02  1.91923397859E-02  1.95209864714E-02
  1.98552509135E-02  2.01952291396E-02  2.05410188191E-02  2.08927192905E-02
  2.12504315906E-02  2.16142584833E-02  2.19843044890E-02  2.23606759147E-02
  2.27434808846E-02  2.31328293713E-02  2.35288332269E-02  2.39316062158E-02
  2.43412640469E-02  2.47579244068E-02  2.51817069941E-02  2.56127335532E-02
  2.60511279099E-02  2.64970160063E-02  2.69505259373E-02  2.74117879877E-02
  2.78809346692E-02  2.83581007584E-02  2.88434233359E-02  2.93370418256E-02
  2.98390980345E-02  3.03497361936E-02  3.08691029994E-02  3.13973476559E-02
  3.19346219175E-02  3.24810801328E-02  3.30368792887E-02  3.36021790555E-02
  3.41771418328E-02  3.47619327964E-02  3.53567199454E-02  3.59616741506E-02
  3.65769692036E-02  3.72027818669E-02  3.78392919242E-02  3.84866822327E-02
  3.91451387750E-02  3.98148507129E-02  4.04960104417E-02  4.11888136455E-02
  4.18934593531E-02  4.26101499957E-02  4.33390914646E-02  4.40804931706E-02
  4.48345681041E-02  4.56015328962E-02  4.63816078809E-02  4.71750171589E-02
  4.79819886612E-02  4.88027542151E-02  4.96375496106E-02  5.04866146684E-02
  5.13501933084E-02  5.22285336201E-02  5.31218879335E-02  5.40305128921E-02
  5.49546695263E-02  5.58946233284E-02  5.68506443290E-02  5.78230071743E-02
  5.88119912054E-02  5.98178805383E-02  6.08409641455E-02  6.18815359391E-02
  6.29398948554E-02  6.40163449402E-02  6.51111954369E-02  6.62247608749E-02
  6.73573611599E-02  6.85093216661E-02  6.96809733295E-02  7.08726527429E-02
  7.20847022527E-02  7.33174700574E-02  7.45713103072E-02  7.58465832062E-02
  7.71436551157E-02  7.84628986592E-02  7.98046928299E-02  8.11694230994E-02
  8.25574815282E-02  8.39692668786E-02  8.54051847293E-02  8.68656475916E-02
  8.83510750284E-02  8.98618937741E-02  9.13985378577E-02  9.29614487274E-02
  9.45510753771E-02  9.61678744760E-02  9.78123104990E-02  9.94848558609E-02
  1.01185991051E-01  1.02916204774E-01  1.04675994085E-01  1.06465864539E-01
  1.08286330330E-01  1.10137914443E-01  1.12021148803E-01  1.13936574425E-01
  1.15884741576E-01  1.17866209925E-01  1.19881548710E-01  1.21931336899E-01
  1.24016163356E-01  1.26136627012E-01  1.28293337035E-01  1.30486913006E-01
  1.32717985096E-01  1.34987194250E-01  1.37295192368E-01  1.39642642493E-01
  1.42030219001E-01  1.44458607798E-01  1.46928506512E-01  1.49440624697E-01
  1.51995684037E-01  1.54594418550E-01  1.57237574803E-01  1.59925912124E-01
  1.62660202819E-01  1.65441232397E-01  1.68269799795E-01  1.71146717605E-01
  1.74072812310E-01  1.77048924520E-01  1.80075909215E-01  1.83154635988E-01
  1.86285989300E-01  1.89470868725E-01  1.92710189220E-01  1.96004881378E-01
  1.99355891700E-01  2.02764182867E-01  2.06230734015E-01  2.09756541016E-01
  2.13342616768E-01  2.16989991480E-01  2.20699712972E-01  2.24472846976E-01
  2.28310477440E-01  2.32213706840E-01  2.36183656500E-01  2.40221466909E-01
  2.44328298051E-01  2.48505329741E-01  2.52753761957E-01  2.57074815194E-01
  2.61469730804E-01  2.65939771364E-01  2.70486221028E-01  2.75110385904E-01
  2.79813594426E-01  2.84597197733E-01  2.89462570062E-01  2.94411109142E-01
  2.99444236590E-01  3.04563398328E-01  3.09770064992E-01  3.15065732356E-01
  3.20451921762E-01  3.25930180560E-01  3.31502082546E-01  3.37169228420E-01
  3.42933246244E-01  3.48795791909E-01  3.54758549609E-01  3.60823232331E-01
  3.66991582340E-01  3.73265371684E-01  3.79646402701E-01  3.86136508537E-01
  3.92737553675E-01  3.99451434467E-01  4.06280079682E-01  4.13225451056E-01
  4.20289543861E-01  4.27474387473E-01  4.34782045960E-01  4.42214618670E-01
  4.49774240838E-01  4.57463084196E-01  4.65283357601E-01  4.73237307665E-01
  4.81327219405E-01  4.89555416896E-01  4.97924263940E-01  5.06436164744E-01
  5.15093564613E-01  5.23898950651E-01  5.32854852474E-01  5.41963842939E-01
  5.51228538884E-01  5.60651601877E-01  5.70235738980E-01  5.79983703531E-01
  5.89898295932E-01  5.99982364453E-01  6.10238806052E-01  6.20670567206E-01
  6.31280644758E-01  6.42072086778E-01  6.53047993439E-01  6.64211517906E-01
  6.75565867244E-01  6.87114303338E-01  6.98860143830E-01  7.10806763072E-01
  7.22957593097E-01  7.35316124603E-01  7.47885907958E-01  7.60670554217E-01
  7.73673736162E-01  7.86899189354E-01  8.00350713211E-01  8.14032172095E-01
  8.27947496424E-01  8.42100683803E-01  8.56495800168E-01  8.71136980956E-01
  8.86028432297E-01  9.01174432216E-01  9.16579331866E-01  9.32247556775E-01
  9.48183608123E-01  9.64392064028E-01  9.80877580866E-01  9.97644894607E-01
  1.01469882218E+00  1.03204426284E+00  1.04968619960E+00  1.06762970064E+00
  1.08587992080E+00  1.10444210300E+00  1.12332157980E+00  1.14252377490E+00
  1.16205420474E+00  1.18191848001E+00  1.20212230735E+00  1.22267149091E+00
  1.24357193410E+00  1.26482964118E+00  1.28645071911E+00  1.30844137919E+00
  1.33080793891E+00  1.35355682375E+00  1.37669456903E+00  1.40022782178E+00
  1.42416334264E+00  1.44850800782E+00  1.47326881108E+00  1.49845286571E+00
  1.52406740661E+00  1.55011979234E+00  1.57661750725E+00  1.60356816360E+00
  1.63097950382E+00  1.65885940265E+00  1.68721586943E+00  1.71605705044E+00
  1.74539123118E+00  1.77522683881E+00  1.80557244451E+00  1.83643676599E+00
  1.86782866997E+00  1.89975717474E+00  1.93223145274E+00  1.96526083320E+00
  1.99885480482E+00  2.03302301850E+00  2.06777529011E+00  2.10312160330E+00
  2.13907211238E+00  2.17563714525E+00  2.21282720632E+00  2.25065297958E+00
  2.28912533165E+00  2.32825531488E+00  2.36805417057E+00  2.40853333215E+00
  2.44970442850E+00  2.49157928729E+00  2.53416993834E+00  2.57748861714E+00
  2.62154776829E+00  2.66636004915E+00  2.71193833340E+00  2.75829571481E+00
  2.80544551096E+00  2.85340126708E+00  2.90217675992E+00  2.95178600173E+00
  3.00224324430E+00  3.05356298301E+00  3.10575996104E+00  3.15884917355E+00
  3.21284587206E+00  3.26776556878E+00  3.32362404106E+00  3.38043733597E+00
  3.43822177486E+00  3.49699395810E+00  3.55677076978E+00  3.61756938264E+00
  3.67940726292E+00  3.74230217548E+00  3.80627218878E+00  3.87133568018E+00
  3.93751134117E+00  4.00481818273E+00  4.07327554080E+00  4.14290308188E+00
  4.21372080859E+00  4.28574906551E+00  4.35900854496E+00  4.43352029296E+00
  4.50930571531E+00  4.58638658369E+00  4.66478504194E+00  4.74452361241E+00
  4.82562520247E+00  4.90811311102E+00  4.99201103524E+00  5.07734307740E+00
  5.16413375172E+00  5.25240799149E+00  5.34219115619E+00  5.43350903880E+00
  5.52638787316E+00  5.62085434157E+00  5.71693558242E+00  5.81465919799E+00
  5.91405326239E+00  6.01514632960E+00  6.11796744170E+00  6.22254613722E+00
  6.32891245959E+00  6.43709696579E+00  6.54713073514E+00  6.65904537822E+00
  6.77287304593E+00  6.88864643876E+00  7.00639881616E+00  7.12616400612E+00
  7.24797641486E+00  7.37187103672E+00  7.49788346423E+00  7.62604989832E+00
  7.75640715874E+00  7.88899269459E+00  8.02384459514E+00  8.16100160073E+00
  8.30050311391E+00  8.44238921077E+00  8.58670065244E+00  8.73347889680E+00
  8.88276611040E+00  9.03460518057E+00  9.18903972774E+00  9.34611411796E+00
  9.50587347566E+00  9.66836369663E+00  9.83363146114E+00  1.00017242474E+01
  1.01726903453E+01  1.03465788701E+01  1.05234397764E+01  1.07033238732E+01
  1.08862828375E+01  1.10723692300E+01  1.12616365097E+01  1.14541390493E+01
  1.16499321512E+01  1.18490720630E+01  1.20516159936E+01  1.22576221300E+01
  1.24671496539E+01  1.26802587583E+01  1.28970106655E+01  1.31174676440E+01
  1.33416930268E+01  1.35697512297E+01  1.38017077693E+01  1.40376292822E+01
  1.42775835441E+01  1.45216394892E+01  1.47698672301E+01  1.50223380778E+01
  1.52791245622E+01  1.55403004533E+01  1.58059407817E+01  1.60761218608E+01
  1.63509213084E+01  1.66304180690E+01  1.69146924367E+01  1.72038260779E+01
  1.74979020553E+01  1.77970048510E+01  1.81012203916E+01  1.84106360723E+01
  1.87253407823E+01  1.90454249300E+01  1.93709804696E+01  1.97021009267E+01
  2.00388814260E+01  2.03814187178E+01  2.07298112067E+01  2.10841589789E+01
  2.14445638317E+01  2.18111293025E+01  2.21839606984E+01  2.25631651268E+01
  2.29488515256E+01  2.33411306951E+01  2.37401153295E+01  2.41459200495E+01
  2.45586614348E+01  2.49784580580E+01  2.54054305187E+01  2.58397014777E+01
  2.62813956926E+01  2.67306400537E+01  2.71875636202E+01  2.76522976574E+01
  2.81249756743E+01  2.86057334623E+01  2.90947091337E+01  2.95920431618E+01
  3.00978784210E+01  3.06123602281E+01  3.11356363836E+01  3.16678572146E+01
  3.22091756181E+01  3.27597471041E+01  3.33197298413E+01  3.38892847019E+01
  3.44685753080E+01  3.50577680785E+01  3.56570322771E+01  3.62665400609E+01
  3.68864665296E+01  3.75169897760E+01  3.81582909375E+01  3.88105542472E+01
  3.94739670880E+01  4.01487200454E+01  4.08350069629E+01  4.15330249974E+01
  4.22429746761E+01  4.29650599538E+01  4.36994882715E+01  4.44464706163E+01
  4.52062215818E+01  4.59789594298E+01  4.67649061528E+01  4.75642875382E+01
  4.83773332327E+01  4.92042768086E+01  5.00453558310E+01  5.09008119253E+01
  5.17708908478E+01  5.26558425551E+01  5.35559212768E+01  5.44713855880E+01
  5.54024984841E+01  5.63495274556E+01  5.73127445657E+01  5.82924265280E+01
  5.92888547863E+01  6.03023155949E+01  6.13331001017E+01  6.23815044311E+01
  6.34478297693E+01  6.45323824509E+01  6.56354740471E+01  6.67574214546E+01
  6.78985469872E+01  6.90591784683E+01  7.02396493247E+01  7.14402986829E+01
  7.26614714662E+01  7.39035184940E+01  7.51667965824E+01  7.64516686466E+01
  7.77585038055E+01  7.90876774877E+01  8.04395715389E+01  8.18145743322E+01
  8.32130808793E+01  8.46354929441E+01  8.60822191579E+01  8.75536751374E+01
  8.90502836032E+01  9.05724745020E+01  9.21206851298E+01  9.36953602577E+01
  9.52969522592E+01  9.69259212408E+01  9.85827351737E+01  1.00267870028E+02
  1.01981809912E+02  1.03725047206E+02  1.05498082708E+02  1.07301425778E+02
  1.09135594480E+02  1.11001115737E+02  1.12898525477E+02  1.14828368787E+02
  1.16791200076E+02  1.18787583226E+02  1.20818091761E+02  1.22883309004E+02
  1.24983828255E+02  1.27120252950E+02  1.29293196844E+02  1.31503284181E+02
  1.33751149877E+02  1.36037439699E+02  1.38362810456E+02  1.40727930180E+02
  1.43133478325E+02  1.45580145958E+02  1.48068635960E+02  1.50599663226E+02
  1.53173954870E+02  1.55792250437E+02  1.58455302113E+02  1.61163874941E+02
  1.63918747041E+02  1.66720709835E+02  1.69570568272E+02  1.72469141062E+02
  1.75417260909E+02  1.78415774750E+02  1.81465544000E+02  1.84567444799E+02
  1.87722368264E+02  1.90931220742E+02  1.94194924075E+02  1.97514415861E+02
  2.00890649727E+02
  </PP_R>
  <PP_RAB>
  5.75517106261E-07  5.85354767993E-07  5.95360590823E-07  6.05537449230E-07
  6.15888266828E-07  6.26416017207E-07  6.37123724787E-07  6.48014465684E-07
  6.59091368597E-07  6.70357615706E-07  6.81816443586E-07  6.93471144137E-07
  7.05325065528E-07  7.17381613162E-07  7.29644250652E-07  7.42116500815E-07
  7.54801946689E-07  7.67704232556E-07  7.80827064993E-07  7.94174213936E-07
  8.07749513763E-07  8.21556864395E-07  8.35600232416E-07  8.49883652214E-07
  8.64411227139E-07  8.79187130683E-07  8.94215607677E-07  9.09500975510E-07
  9.25047625375E-07  9.40860023522E-07  9.56942712547E-07  9.73300312695E-07
  9.89937523190E-07  1.00685912358E-06  1.02406997511E-06  1.04157502213E-06
  1.05937929350E-06  1.07748790403E-06  1.09590605600E-06  1.11463904056E-06
  1.13369223936E-06  1.15307112599E-06  1.17278126765E-06  1.19282832667E-06
  1.21321806219E-06  1.23395633178E-06  1.25504909314E-06  1.27650240582E-06
  1.29832243295E-06  1.32051544298E-06  1.34308781155E-06  1.36604602326E-06
  1.38939667355E-06  1.41314647063E-06  1.43730223734E-06  1.46187091317E-06
  1.48685955622E-06  1.51227534525E-06  1.53812558173E-06  1.56441769192E-06
  1.59115922904E-06  1.61835787541E-06  1.64602144469E-06  1.67415788408E-06
  1.70277527663E-06  1.73188184357E-06  1.76148594665E-06  1.79159609055E-06
  1.82222092534E-06  1.85336924895E-06  1.88505000967E-06  1.91727230878E-06
  1.95004540313E-06  1.98337870779E-06  2.01728179877E-06  2.05176441577E-06
  2.08683646499E-06  2.12250802194E-06  2.15878933437E-06  2.19569082521E-06
  2.23322309553E-06  2.27139692763E-06  2.31022328812E-06  2.34971333105E-06
  2.38987840115E-06  2.43073003707E-06  2.47227997470E-06  2.51454015052E-06
  2.55752270506E-06  2.60123998639E-06  2.64570455363E-06  2.69092918060E-06
  2.73692685944E-06  2.78371080441E-06  2.83129445563E-06  2.87969148295E-06
  2.92891578992E-06  2.97898151771E-06  3.02990304925E-06  3.08169501330E-06
  3.13437228870E-06  3.18795000860E-06  3.24244356486E-06  3.29786861240E-06
  3.35424107378E-06  3.41157714371E-06  3.46989329374E-06  3.52920627696E-06
  3.58953313286E-06  3.65089119217E-06  3.71329808186E-06  3.77677173024E-06
  3.84133037206E-06  3.90699255375E-06  3.97377713881E-06  4.04170331314E-06
  4.11079059062E-06  4.18105881869E-06  4.25252818406E-06  4.32521921848E-06
  4.39915280468E-06  4.47435018236E-06  4.55083295427E-06  4.62862309241E-06
  4.70774294441E-06  4.78821523985E-06  4.87006309688E-06  4.95331002880E-06
  5.03797995083E-06  5.12409718702E-06  5.21168647717E-06  5.30077298400E-06
  5.39138230033E-06  5.48354045647E-06  5.57727392767E-06  5.67260964174E-06
  5.76957498680E-06  5.86819781910E-06  5.96850647108E-06  6.07052975947E-06
  6.17429699360E-06  6.27983798377E-06  6.38718304988E-06  6.49636303007E-06
  6.60740928966E-06  6.72035373008E-06  6.83522879808E-06  6.95206749504E-06
  7.07090338647E-06  7.19177061161E-06  7.31470389329E-06  7.43973854784E-06
  7.56691049532E-06  7.69625626975E-06  7.82781302968E-06  7.96161856882E-06
  8.09771132692E-06  8.23613040077E-06  8.37691555552E-06  8.52010723600E-06
  8.66574657843E-06  8.81387542215E-06  8.96453632173E-06  9.11777255912E-06
  9.27362815613E-06  9.43214788706E-06  9.59337729155E-06  9.75736268771E-06
  9.92415118534E-06  1.00937906996E-05  1.02663299646E-05  1.04418185475E-05
  1.06203068628E-05  1.08018461868E-05  1.09864886721E-05  1.11742873631E-05
  1.13652962106E-05  1.15595700877E-05  1.17571648057E-05  1.19581371296E-05
  1.21625447949E-05  1.23704465239E-05  1.25819020429E-05  1.27969720988E-05
  1.30157184772E-05  1.32382040197E-05  1.34644926420E-05  1.36946493525E-05
  1.39287402707E-05  1.41668326465E-05  1.44089948792E-05  1.46552965373E-05
  1.49058083784E-05  1.51606023699E-05  1.54197517091E-05  1.56833308445E-05
  1.59514154975E-05  1.62240826834E-05  1.65014107343E-05  1.67834793212E-05
  1.70703694770E-05  1.73621636195E-05  1.76589455757E-05  1.79608006053E-05
  1.82678154253E-05  1.85800782352E-05  1.88976787420E-05  1.92207081862E-05
  1.95492593680E-05  1.98834266737E-05  2.02233061031E-05  2.05689952970E-05
  2.09205935652E-05  2.12782019152E-05  2.16419230808E-05  2.20118615521E-05
  2.23881236052E-05  2.27708173331E-05  2.31600526762E-05  2.35559414542E-05
  2.39585973983E-05  2.43681361839E-05  2.47846754635E-05  2.52083349007E-05
  2.56392362047E-05  2.60775031652E-05  2.65232616877E-05  2.69766398300E-05
  2.74377678389E-05  2.79067781876E-05  2.83838056137E-05  2.88689871578E-05
  2.93624622033E-05  2.98643725160E-05  3.03748622851E-05  3.08940781643E-05
  3.14221693143E-05  3.19592874455E-05  3.25055868616E-05  3.30612245037E-05
  3.36263599959E-05  3.42011556907E-05  3.47857767156E-05  3.53803910210E-05
  3.59851694282E-05  3.66002856782E-05  3.72259164820E-05  3.78622415713E-05
  3.85094437499E-05  3.91677089465E-05  3.98372262679E-05  4.05181880536E-05
  4.12107899306E-05  4.19152308702E-05  4.26317132444E-05  4.33604428849E-05
  4.41016291416E-05  4.48554849430E-05  4.56222268572E-05  4.64020751543E-05
  4.71952538697E-05  4.80019908682E-05  4.88225179099E-05  4.96570707162E-05
  5.05058890380E-05  5.13692167244E-05  5.22473017927E-05  5.31403964999E-05
  5.40487574146E-05  5.49726454914E-05  5.59123261455E-05  5.68680693289E-05
  5.78401496083E-05  5.88288462433E-05  5.98344432675E-05  6.08572295694E-05
  6.18974989757E-05  6.29555503357E-05  6.40316876071E-05  6.51262199433E-05
  6.62394617822E-05  6.73717329366E-05  6.85233586863E-05  6.96946698709E-05
  7.08860029855E-05  7.20977002771E-05  7.33301098428E-05  7.45835857300E-05
  7.58584880382E-05  7.71551830221E-05  7.84740431971E-05  7.98154474461E-05
  8.11797811286E-05  8.25674361914E-05  8.39788112809E-05  8.54143118578E-05
  8.68743503136E-05  8.83593460892E-05  8.98697257951E-05  9.14059233342E-05
  9.29683800262E-05  9.45575447348E-05  9.61738739963E-05  9.78178321507E-05
  9.94898914754E-05  1.01190532321E-04  1.02920243248E-04  1.04679521169E-04
  1.06468871492E-04  1.08288808260E-04  1.10139854308E-04  1.12022541405E-04
  1.13937410410E-04  1.15885011428E-04  1.17865903968E-04  1.19880657101E-04
  1.21929849627E-04  1.24014070240E-04  1.26133917695E-04  1.28290000983E-04
  1.30482939507E-04  1.32713363254E-04  1.34981912982E-04  1.37289240402E-04
  1.39636008364E-04  1.42022891049E-04  1.44450574163E-04  1.46919755131E-04
  1.49431143302E-04  1.51985460148E-04  1.54583439476E-04  1.57225827636E-04
  1.59913383732E-04  1.62646879850E-04  1.65427101269E-04  1.68254846693E-04
  1.71130928478E-04  1.74056172868E-04  1.77031420228E-04  1.80057525289E-04
  1.83135357393E-04  1.86265800742E-04  1.89449754650E-04  1.92688133808E-04
  1.95981868537E-04  1.99331905065E-04  2.02739205791E-04  2.06204749569E-04
  2.09729531980E-04  2.13314565628E-04  2.16960880423E-04  2.20669523880E-04
  2.24441561422E-04  2.28278076680E-04  2.32180171813E-04  2.36148967817E-04
  2.40185604849E-04  2.44291242557E-04  2.48467060413E-04  2.52714258047E-04
  2.57034055596E-04  2.61427694057E-04  2.65896435634E-04  2.70441564113E-04
  2.75064385220E-04  2.79766227001E-04  2.84548440206E-04  2.89412398672E-04
  2.94359499719E-04  2.99391164555E-04  3.04508838679E-04  3.09713992299E-04
  3.15008120757E-04  3.20392744951E-04  3.25869411782E-04  3.31439694588E-04
  3.37105193606E-04  3.42867536422E-04  3.48728378446E-04  3.54689403386E-04
  3.60752323727E-04  3.66918881231E-04  3.73190847428E-04  3.79570024135E-04
  3.86058243964E-04  3.92657370857E-04  3.99369300614E-04  4.06195961442E-04
  4.13139314511E-04  4.20201354509E-04  4.27384110226E-04  4.34689645127E-04
  4.42120057952E-04  4.49677483314E-04  4.57364092315E-04  4.65182093170E-04
  4.73133731838E-04  4.81221292672E-04  4.89447099071E-04  4.97813514151E-04
  5.06322941420E-04  5.14977825472E-04  5.23780652689E-04  5.32733951951E-04
  5.41840295369E-04  5.51102299019E-04  5.60522623695E-04  5.70103975674E-04
  5.79849107493E-04  5.89760818740E-04  5.99841956858E-04  6.10095417963E-04
  6.20524147676E-04  6.31131141969E-04  6.41919448025E-04  6.52892165118E-04
  6.64052445495E-04  6.75403495291E-04  6.86948575440E-04  6.98691002623E-04
  7.10634150210E-04  7.22781449237E-04  7.35136389388E-04  7.47702519999E-04
  7.60483451074E-04  7.73482854329E-04  7.86704464241E-04  8.00152079122E-04
  8.13829562211E-04  8.27740842785E-04  8.41889917287E-04  8.56280850470E-04
  8.70917776571E-04  8.85804900497E-04  9.00946499030E-04  9.16346922057E-04
  9.32010593824E-04  9.47942014199E-04  9.64145759971E-04  9.80626486162E-04
  9.97388927368E-04  1.01443789911E-03  1.03177829923E-03  1.04941510930E-03
  1.06735339601E-03  1.08559831270E-03  1.10415510078E-03  1.12302909126E-03
  1.14222570626E-03  1.16175046060E-03  1.18160896337E-03  1.20180691953E-03
  1.22235013156E-03  1.24324450113E-03  1.26449603079E-03  1.28611082569E-03
  1.30809509534E-03  1.33045515540E-03  1.35319742948E-03  1.37632845099E-03
  1.39985486504E-03  1.42378343030E-03  1.44812102099E-03  1.47287462883E-03
  1.49805136504E-03  1.52365846243E-03  1.54970327741E-03  1.57619329215E-03
  1.60313611672E-03  1.63053949128E-03  1.65841128828E-03  1.68675951475E-03
  1.71559231459E-03  1.74491797090E-03  1.77474490838E-03  1.80508169573E-03
  1.83593704813E-03  1.86731982971E-03  1.89923905614E-03  1.93170389720E-03
  1.96472367941E-03  1.99830788871E-03  2.03246617320E-03  2.06720834590E-03
  2.10254438755E-03  2.13848444951E-03  2.17503885668E-03  2.21221811042E-03
  2.25003289162E-03  2.28849406372E-03  2.32761267589E-03  2.36739996614E-03
  2.40786736458E-03  2.44902649673E-03  2.49088918679E-03  2.53346746112E-03
  2.57677355163E-03  2.62081989931E-03  2.66561915784E-03  2.71118419717E-03
  2.75752810726E-03  2.80466420181E-03  2.85260602211E-03  2.90136734092E-03
  2.95096216643E-03  3.00140474626E-03  3.05270957159E-03  3.10489138132E-03
  3.15796516625E-03  3.21194617347E-03  3.26684991067E-03  3.32269215063E-03
  3.37948893575E-03  3.43725658265E-03  3.49601168685E-03  3.55577112755E-03
  3.61655207250E-03  3.67837198287E-03  3.74124861833E-03  3.80520004212E-03
  3.87024462625E-03  3.93640105677E-03  4.00368833914E-03  4.07212580370E-03
  4.14173311120E-03  4.21253025848E-03  4.28453758418E-03  4.35777577462E-03
  4.43226586972E-03  4.50802926903E-03  4.58508773792E-03  4.66346341379E-03
  4.74317881245E-03  4.82425683461E-03  4.90672077240E-03  4.99059431612E-03
  5.07590156101E-03  5.16266701420E-03  5.25091560172E-03  5.34067267568E-03
  5.43196402155E-03  5.52481586558E-03  5.61925488229E-03  5.71530820220E-03
  5.81300341955E-03  5.91236860031E-03  6.01343229015E-03  6.11622352272E-03
  6.22077182795E-03  6.32710724056E-03  6.43526030864E-03  6.54526210248E-03