<PP_INFO>
Generated using unknown code
Author: X. Gonze et al.   Generation date: 1990
Info:  Te BHS modified for use as KB with l=2 as local part
    1        The Pseudo was generated with a Scalar-Relativistic Calculation
  0.00000000000E+00    Local Potential cutoff radius
nl pn  l   occ               Rcut            Rcut US             E pseu
5S  0  0  2.00      0.00000000000      0.00000000000      0.00000000000
5P  0  1  4.00      0.00000000000      0.00000000000      0.00000000000
</PP_INFO>


<PP_HEADER>
   0                   Version Number
  Te                   Element
   NC                  Norm - Conserving pseudopotential
    F                  Nonlinear Core Correction
 SLA  PZ   NOGX NOGC   PZ   Exchange-Correlation functional
    6.00000000000      Z valence
    0.00000000000      Total energy
  0.0000000  0.0000000 Suggested cutoff for wfc and rho
    1                  Max angular momentum component
  603                  Number of points in mesh
    2    2             Number of Wavefunctions, Number of Projectors
 Wavefunctions         nl  l   occ
                       5S  0  2.00
                       5P  1  4.00
</PP_HEADER>


<PP_MESH>
  <PP_R>
  1.75361916453E-05  1.79801224503E-05  1.84352914172E-05  1.89019830413E-05
  1.93804890202E-05  1.98711084355E-05  2.03741479405E-05  2.08899219512E-05
  2.14187528432E-05  2.19609711529E-05  2.25169157844E-05  2.30869342214E-05
  2.36713827437E-05  2.42706266509E-05  2.48850404897E-05  2.55150082890E-05
  2.61609237990E-05  2.68231907380E-05  2.75022230444E-05  2.81984451354E-05
  2.89122921726E-05  2.96442103336E-05  3.03946570911E-05  3.11641014986E-05
  3.19530244841E-05  3.27619191500E-05  3.35912910819E-05  3.44416586643E-05
  3.53135534044E-05  3.62075202650E-05  3.71241180044E-05  3.80639195260E-05
  3.90275122365E-05  4.00154984125E-05  4.10284955776E-05  4.20671368881E-05
  4.31320715286E-05  4.42239651178E-05  4.53435001248E-05  4.64913762955E-05
  4.76683110897E-05  4.88750401302E-05  5.01123176617E-05  5.13809170231E-05
  5.26816311302E-05  5.40152729716E-05  5.53826761171E-05  5.67846952380E-05
  5.82222066418E-05  5.96961088202E-05  6.12073230098E-05  6.27567937688E-05
  6.43454895668E-05  6.59744033903E-05  6.76445533637E-05  6.93569833849E-05
  7.11127637785E-05  7.29129919644E-05  7.47587931438E-05  7.66513210025E-05
  7.85917584320E-05  8.05813182689E-05  8.26212440529E-05  8.47128108040E-05
  8.68573258195E-05  8.90561294910E-05  9.13105961425E-05  9.36221348890E-05
  9.59921905175E-05  9.84222443899E-05  1.00913815369E-04  1.03468460768E-04
  1.06087777322E-04  1.08773402191E-04  1.11527013978E-04  1.14350333778E-04
  1.17245126260E-04  1.20213200762E-04  1.23256412428E-04  1.26376663364E-04
  1.29575903829E-04  1.32856133451E-04  1.36219402482E-04  1.39667813073E-04
  1.43203520595E-04  1.46828734978E-04  1.50545722100E-04  1.54356805200E-04
  1.58264366327E-04  1.62270847836E-04  1.66378753906E-04  1.70590652114E-04
  1.74909175033E-04  1.79337021879E-04  1.83876960203E-04  1.88531827612E-04
  1.93304533551E-04  1.98198061115E-04  2.03215468920E-04  2.08359893008E-04
  2.13634548812E-04  2.19042733164E-04  2.24587826354E-04  2.30273294246E-04
  2.36102690444E-04  2.42079658508E-04  2.48207934240E-04  2.54491348010E-04
  2.60933827158E-04  2.67539398441E-04  2.74312190558E-04  2.81256436723E-04
  2.88376477317E-04  2.95676762597E-04  3.03161855478E-04  3.10836434388E-04
  3.18705296188E-04  3.26773359172E-04  3.35045666144E-04  3.43527387564E-04
  3.52223824783E-04  3.61140413359E-04  3.70282726450E-04  3.79656478298E-04
  3.89267527804E-04  3.99121882187E-04  4.09225700738E-04  4.19585298674E-04
  4.30207151080E-04  4.41097896960E-04  4.52264343385E-04  4.63713469746E-04
  4.75452432122E-04  4.87488567745E-04  4.99829399591E-04  5.12482641084E-04
  5.25456200909E-04  5.38758187966E-04  5.52396916428E-04  5.66380910944E-04
  5.80718911968E-04  5.95419881215E-04  6.10493007271E-04  6.25947711329E-04
  6.41793653083E-04  6.58040736763E-04  6.74699117324E-04  6.91779206797E-04
  7.09291680793E-04  7.27247485179E-04  7.45657842918E-04  7.64534261081E-04
  7.83888538046E-04  8.03732770864E-04  8.24079362828E-04  8.44941031219E-04
  8.66330815261E-04  8.88262084263E-04  9.10748545983E-04  9.33804255192E-04
  9.57443622459E-04  9.81681423157E-04  1.00653280670E-03  1.03201330601E-03
  1.05813884724E-03  1.08492575969E-03  1.11239078605E-03  1.14055109287E-03
  1.16942428125E-03  1.19902839788E-03  1.22938194628E-03  1.26050389842E-03
  1.29241370653E-03  1.32513131528E-03  1.35867717424E-03  1.39307225066E-03
  1.42833804258E-03  1.46449659228E-03  1.50157050002E-03  1.53958293821E-03
  1.57855766584E-03  1.61851904341E-03  1.65949204806E-03  1.70150228927E-03
  1.74457602480E-03  1.78874017713E-03  1.83402235030E-03  1.88045084714E-03
  1.92805468698E-03  1.97686362376E-03  2.02690816465E-03  2.07821958913E-03
  2.13082996851E-03  2.18477218598E-03  2.24007995718E-03  2.29678785128E-03
  2.35493131256E-03  2.41454668256E-03  2.47567122284E-03  2.53834313823E-03
  2.60260160070E-03  2.66848677390E-03  2.73603983820E-03  2.80530301647E-03
  2.87631960044E-03  2.94913397779E-03  3.02379165988E-03  3.10033931019E-03
  3.17882477349E-03  3.25929710576E-03  3.34180660482E-03  3.42640484179E-03
  3.51314469332E-03  3.60208037465E-03  3.69326747348E-03  3.78676298470E-03
  3.88262534605E-03  3.98091447464E-03  4.08169180436E-03  4.18502032433E-03
  4.29096461824E-03  4.39959090472E-03  4.51096707873E-03  4.62516275401E-03
  4.74224930657E-03  4.86229991932E-03  4.98538962781E-03  5.11159536709E-03
  5.24099601988E-03  5.37367246580E-03  5.50970763193E-03  5.64918654468E-03
  5.79219638293E-03  5.93882653246E-03  6.08916864190E-03  6.24331667997E-03
  6.40136699419E-03  6.56341837117E-03  6.72957209829E-03  6.89993202704E-03
  7.07460463791E-03  7.25369910698E-03  7.43732737413E-03  7.62560421298E-03
  7.81864730270E-03  8.01657730151E-03  8.21951792209E-03  8.42759600894E-03
  8.64094161764E-03  8.85968809613E-03  9.08397216810E-03  9.31393401837E-03
  9.54971738060E-03  9.79146962707E-03  1.00393418608E-02  1.02934890100E-02
  1.05540699249E-02  1.08212474771E-02  1.10951886612E-02  1.13760646994E-02
  1.16640511483E-02  1.19593280089E-02  1.22620798389E-02  1.25724958679E-02
  1.28907701161E-02  1.32171015152E-02  1.35516940331E-02  1.38947568008E-02
  1.42465042439E-02  1.46071562159E-02  1.49769381360E-02  1.53560811300E-02
  1.57448221746E-02  1.61434042456E-02  1.65520764697E-02  1.69710942805E-02
  1.74007195776E-02  1.78412208909E-02  1.82928735481E-02  1.87559598467E-02
  1.92307692308E-02  1.97175984716E-02  2.02167518534E-02  2.07285413632E-02
  2.12532868861E-02  2.17913164051E-02  2.23429662063E-02  2.29085810887E-02
  2.34885145800E-02  2.40831291575E-02  2.46927964748E-02  2.53178975936E-02
  2.59588232226E-02  2.66159739612E-02  2.72897605499E-02  2.79806041273E-02
  2.86889364931E-02  2.94152003781E-02  3.01598497210E-02  3.09233499516E-02
  3.17061782827E-02  3.25088240073E-02  3.33317888051E-02  3.41755870560E-02
  3.50407461614E-02  3.59278068737E-02  3.68373236349E-02  3.77698649225E-02
  3.87260136052E-02  3.97063673070E-02  4.07115387810E-02  4.17421562920E-02
  4.27988640095E-02  4.38823224102E-02  4.49932086909E-02  4.61322171917E-02
  4.73000598299E-02  4.84974665453E-02  4.97251857561E-02  5.09839848266E-02
  5.22746505473E-02  5.35979896263E-02  5.49548291935E-02  5.63460173180E-02
  5.77724235374E-02  5.92349394023E-02  6.07344790325E-02  6.22719796892E-02
  6.38484023603E-02  6.54647323614E-02  6.71219799512E-02  6.88211809635E-02
  7.05633974542E-02  7.23497183654E-02  7.41812602057E-02  7.60591677485E-02
  7.79846147470E-02  7.99588046684E-02  8.19829714456E-02  8.40583802486E-02
  8.61863282757E-02  8.83681455636E-02  9.06051958191E-02  9.28988772714E-02
  9.52506235461E-02  9.76619045612E-02  1.00134227446E-01  1.02669137482E-01
  1.05268219072E-01  1.07933096725E-01  1.10665436077E-01  1.13466944929E-01
  1.16339374316E-01  1.19284519598E-01  1.22304221588E-01  1.25400367699E-01
  1.28574893121E-01  1.31829782037E-01  1.35167068857E-01  1.38588839497E-01
  1.42097232672E-01  1.45694441243E-01  1.49382713583E-01  1.53164354981E-01
  1.57041729088E-01  1.61017259387E-01  1.65093430715E-01  1.69272790811E-01
  1.73557951912E-01  1.77951592383E-01  1.82456458392E-01  1.87075365626E-01
  1.91811201054E-01  1.96666924727E-01  2.01645571629E-01  2.06750253578E-01
  2.11984161166E-01  2.17350565755E-01  2.22852821524E-01  2.28494367560E-01
  2.34278730014E-01  2.40209524300E-01  2.46290457359E-01  2.52525329971E-01
  2.58918039135E-01  2.65472580501E-01  2.72193050873E-01  2.79083650761E-01
  2.86148687017E-01  2.93392575517E-01  3.00819843927E-01  3.08435134532E-01
  3.16243207136E-01  3.24248942040E-01  3.32457343088E-01  3.40873540797E-01
  3.49502795566E-01  3.58350500960E-01  3.67422187081E-01  3.76723524031E-01
  3.86260325446E-01  3.96038552138E-01  4.06064315818E-01  4.16343882914E-01
  4.26883678489E-01  4.37690290260E-01  4.48770472710E-01  4.60131151315E-01
  4.71779426867E-01  4.83722579920E-01  4.95968075331E-01  5.08523566934E-01
  5.21396902320E-01  5.34596127744E-01  5.48129493149E-01  5.62005457331E-01
  5.76232693219E-01  5.90820093298E-01  6.05776775168E-01  6.21112087243E-01
  6.36835614590E-01  6.52957184928E-01  6.69486874762E-01  6.86435015686E-01
  7.03812200840E-01  7.21629291531E-01  7.39897424020E-01  7.58628016485E-01
  7.77832776155E-01  7.97523706631E-01  8.17713115386E-01  8.38413621456E-01
  8.59638163333E-01  8.81400007045E-01  9.03712754453E-01  9.26590351752E-01
  9.50047098183E-01  9.74097654978E-01  9.98757054516E-01  1.02404070973E+00
  1.04996442371E+00  1.07654439965E+00  1.10379725087E+00  1.13174001131E+00
  1.16039014610E+00  1.18976556251E+00  1.21988462112E+00  1.25076614733E+00
  1.28242944309E+00  1.31489429901E+00  1.34818100667E+00  1.38231037134E+00
  1.41730372499E+00  1.45318293961E+00  1.48997044087E+00  1.52768922216E+00
  1.56636285894E+00  1.60601552350E+00  1.64667200004E+00  1.68835770019E+00
  1.73109867886E+00  1.77492165055E+00  1.81985400606E+00  1.86592382956E+00
  1.91315991619E+00  1.96159179005E+00  2.01124972264E+00  2.06216475177E+00
  2.11436870100E+00  2.16789419950E+00  2.22277470245E+00  2.27904451194E+00
  2.33673879844E+00  2.39589362275E+00  2.45654595858E+00  2.51873371559E+00
  2.58249576317E+00  2.64787195467E+00  2.71490315234E+00  2.78363125285E+00
  2.85409921351E+00  2.92635107909E+00  3.00043200935E+00  3.07638830730E+00
  3.15426744808E+00  3.23411810869E+00  3.31599019840E+00  3.39993488993E+00
  3.48600465145E+00  3.57425327935E+00  3.66473593190E+00  3.75750916370E+00
  3.85263096105E+00  3.95016077817E+00  4.05015957436E+00  4.15268985213E+00
  4.25781569623E+00  4.36560281376E+00  4.47611857515E+00  4.58943205636E+00
  4.70561408200E+00  4.82473726963E+00  4.94687607511E+00  5.07210683917E+00
  5.20050783512E+00  5.33215931775E+00  5.46714357354E+00  5.60554497203E+00
  5.74745001860E+00  5.89294740853E+00  6.04212808242E+00  6.19508528305E+00
  6.35191461365E+00  6.51271409765E+00  6.67758423998E+00  6.84662808982E+00
  7.01995130510E+00  7.19766221847E+00  7.37987190502E+00  7.56669425175E+00
  7.75824602871E+00  7.95464696198E+00  8.15601980855E+00  8.36249043301E+00
  8.57418788620E+00  8.79124448594E+00  9.01379589966E+00  9.24198122924E+00
  9.47594309795E+00  9.71582773955E+00  9.96178508978E+00  1.02139688800E+01
  1.04725367332E+01  1.07376502628E+01  1.10094751733E+01  1.12881813643E+01
  1.15739430360E+01  1.18669387989E+01  1.21673517849E+01  1.24753697617E+01
  1.27911852509E+01  1.31149956471E+01  1.34470033426E+01  1.37874158529E+01
  1.41364459470E+01  1.44943117799E+01  1.48612370295E+01  1.52374510361E+01
  1.56231889455E+01  1.60186918567E+01  1.64242069717E+01  1.68399877507E+01
  1.72662940702E+01  1.77033923856E+01  1.81515558975E+01  1.86110647228E+01
  1.90822060693E+01  1.95652744158E+01  2.00605716958E+01  2.05684074860E+01
  2.10890992005E+01  2.16229722886E+01  2.21703604381E+01  2.27316057847E+01
  2.33070591249E+01  2.38970801357E+01  2.45020375995E+01  2.51223096344E+01
  2.57582839307E+01  2.64103579929E+01  2.70789393886E+01  2.77644460028E+01
  2.84673062997E+01  2.91879595897E+01  2.99268563046E+01  3.06844582788E+01
  3.14612390384E+01  3.22576840965E+01  3.30742912572E+01  3.39115709267E+01
  3.47700464318E+01  3.56502543479E+01  3.65527448335E+01  3.74780819744E+01
  3.84268441366E+01  3.93996243273E+01  4.03970305658E+01  4.14196862634E+01
  4.24682306132E+01  4.35433189896E+01  4.46456233579E+01  4.57758326941E+01
  4.69346534159E+01  4.81228098239E+01  4.93410445545E+01  5.05901190442E+01
  5.18708140052E+01  5.31839299134E+01  5.45302875091E+01  5.59107283097E+01
  5.73261151354E+01  5.87773326493E+01  6.02652879094E+01
  </PP_R>
  <PP_RAB>
  4.38404791132E-07  4.49503061258E-07  4.60882285430E-07  4.72549576033E-07
  4.84512225504E-07  4.96777710888E-07  5.09353698513E-07  5.22248048781E-07
  5.35468821079E-07  5.49024278822E-07  5.62922894611E-07  5.77173355534E-07
  5.91784568593E-07  6.06765666271E-07  6.22126012243E-07  6.37875207225E-07
  6.54023094975E-07  6.70579768450E-07  6.87555576110E-07  7.04961128386E-07
  7.22807304316E-07  7.41105258341E-07  7.59866427277E-07  7.79102537466E-07
  7.98825612103E-07  8.19047978751E-07  8.39782277049E-07  8.61041466606E-07
  8.82838835110E-07  9.05188006625E-07  9.28102950109E-07  9.51597988151E-07
  9.75687805911E-07  1.00038746031E-06  1.02571238944E-06  1.05167842220E-06
  1.07830178821E-06  1.10559912794E-06  1.13358750312E-06  1.16228440739E-06
  1.19170777724E-06  1.22187600325E-06  1.25280794154E-06  1.28452292558E-06
  1.31704077825E-06  1.35038182429E-06  1.38456690293E-06  1.41961738095E-06
  1.45555516605E-06  1.49240272050E-06  1.53018307525E-06  1.56891984422E-06
  1.60863723917E-06  1.64936008476E-06  1.69111383409E-06  1.73392458462E-06
  1.77781909446E-06  1.82282479911E-06  1.86896982859E-06  1.91628302506E-06
  1.96479396080E-06  2.01453295672E-06  2.06553110132E-06  2.11782027010E-06
  2.17143314549E-06  2.22640323728E-06  2.28276490356E-06  2.34055337223E-06
  2.39980476294E-06  2.46055610975E-06  2.52284538422E-06  2.58671151919E-06
  2.65219443306E-06  2.71933505479E-06  2.78817534944E-06  2.85875834446E-06
  2.93112815650E-06  3.00533001905E-06  3.08141031070E-06  3.15941658410E-06
  3.23939759571E-06  3.32140333628E-06  3.40548506204E-06  3.49169532683E-06
  3.58008801487E-06  3.67071837445E-06  3.76364305251E-06  3.85892013000E-06
  3.95660915818E-06  4.05677119589E-06  4.15946884765E-06  4.26476630285E-06
  4.37272937582E-06  4.48342554698E-06  4.59692400507E-06  4.71329569030E-06
  4.83261333877E-06  4.95495152788E-06  5.08038672301E-06  5.20899732521E-06
  5.34086372031E-06  5.47606832909E-06  5.61469565884E-06  5.75683235616E-06
  5.90256726109E-06  6.05199146271E-06  6.20519835600E-06  6.36228370026E-06
  6.52334567894E-06  6.68848496103E-06  6.85780476394E-06  7.03141091807E-06
  7.20941193292E-06  7.39191906491E-06  7.57904638695E-06  7.77091085970E-06
  7.96763240469E-06  8.16933397931E-06  8.37614165360E-06  8.58818468909E-06
  8.80559561958E-06  9.02851033398E-06  9.25706816124E-06  9.49141195745E-06
  9.73168819510E-06  9.97804705466E-06  1.02306425185E-05  1.04896324668E-05
  1.07551787770E-05  1.10274474240E-05  1.13066085846E-05  1.15928367437E-05
  1.18863108030E-05  1.21872141936E-05  1.24957349898E-05  1.28120660271E-05
  1.31364050227E-05  1.34689546991E-05  1.38099229107E-05  1.41595227736E-05
  1.45179727992E-05  1.48854970304E-05  1.52623251818E-05  1.56486927832E-05
  1.60448413271E-05  1.64510184191E-05  1.68674779331E-05  1.72944801699E-05
  1.77322920198E-05  1.81811871295E-05  1.86414460729E-05  1.91133565270E-05
  1.95972134511E-05  2.00933192716E-05  2.06019840707E-05  2.11235257805E-05
  2.16582703815E-05  2.22065521066E-05  2.27687136496E-05  2.33451063798E-05
  2.39360905615E-05  2.45420355789E-05  2.51633201675E-05  2.58003326504E-05
  2.64534711810E-05  2.71231439922E-05  2.78097696514E-05  2.85137773218E-05
  2.92356070314E-05  2.99757099470E-05  3.07345486571E-05  3.15125974606E-05
  3.23103426633E-05  3.31282828820E-05  3.39669293560E-05  3.48268062665E-05
  3.57084510646E-05  3.66124148070E-05  3.75392625006E-05  3.84895734552E-05
  3.94639416461E-05  4.04629760852E-05  4.14873012016E-05  4.25375572318E-05
  4.36144006199E-05  4.47185044282E-05  4.58505587575E-05  4.70112711785E-05
  4.82013671744E-05  4.94215905939E-05  5.06727041163E-05  5.19554897283E-05
  5.32707492127E-05  5.46193046494E-05  5.60019989296E-05  5.74196962821E-05
  5.88732828139E-05  6.03636670640E-05  6.18917805711E-05  6.34585784557E-05
  6.50650400176E-05  6.67121693476E-05  6.84009959551E-05  7.01325754116E-05
  7.19079900109E-05  7.37283494447E-05  7.55947914969E-05  7.75084827547E-05
  7.94706193373E-05  8.14824276440E-05  8.35451651204E-05  8.56601210447E-05
  8.78286173330E-05  9.00520093663E-05  9.23316868369E-05  9.46690746174E-05
  9.70656336513E-05  9.95228618659E-05  1.02042295109E-04  1.04625508108E-04
  1.07274115456E-04  1.09989772618E-04  1.12774176968E-04  1.15629068850E-04
  1.18556232664E-04  1.21557497983E-04  1.24634740695E-04  1.27789884177E-04
  1.31024900497E-04  1.34341811645E-04  1.37742690798E-04  1.41229663617E-04
  1.44804909573E-04  1.48470663312E-04  1.52229216048E-04  1.56082916999E-04
  1.60034174855E-04  1.64085459279E-04  1.68239302457E-04  1.72498300676E-04
  1.76865115948E-04  1.81342477675E-04  1.85933184353E-04  1.90640105325E-04
  1.95466182568E-04  2.00414432538E-04  2.05487948052E-04  2.10689900224E-04
  2.16023540441E-04  2.21492202403E-04  2.27099304202E-04  2.32848350459E-04
  2.38742934515E-04  2.44786740677E-04  2.50983546520E-04  2.57337225250E-04
  2.63851748122E-04  2.70531186926E-04  2.77379716529E-04  2.84401617484E-04
  2.91601278708E-04  2.98983200224E-04  3.06551995972E-04  3.14312396697E-04
  3.22269252902E-04  3.30427537880E-04  3.38792350826E-04  3.47368920020E-04
  3.56162606097E-04  3.65178905397E-04  3.74423453400E-04  3.83902028250E-04
  3.93620554364E-04  4.03585106139E-04  4.13801911743E-04  4.24277357012E-04
  4.35017989440E-04  4.46030522273E-04  4.57321838702E-04  4.68898996167E-04
  4.80769230769E-04  4.92939961791E-04  5.05418796335E-04  5.18213534079E-04
  5.31332172152E-04  5.44782910128E-04  5.58574155158E-04  5.72714527217E-04
  5.87212864500E-04  6.02078228938E-04  6.17319911869E-04  6.32947439840E-04
  6.48970580565E-04  6.65399349029E-04  6.82244013747E-04  6.99515103182E-04
  7.17223412328E-04  7.35380009454E-04  7.53996243024E-04  7.73083748791E-04
  7.92654457067E-04  8.12720600182E-04  8.33294720129E-04  8.54389676401E-04
  8.76018654034E-04  8.98195171842E-04  9.20933090872E-04  9.44246623062E-04
  9.68150340130E-04  9.92659182676E-04  1.01778846953E-03  1.04355390730E-03
  1.06997160024E-03  1.09705806025E-03  1.12483021727E-03  1.15330542979E-03
  1.18250149575E-03  1.21243666363E-03  1.24312964390E-03  1.27459962066E-03
  1.30686626368E-03  1.33994974066E-03  1.37387072984E-03  1.40865043295E-03
  1.44431058844E-03  1.48087348506E-03  1.51836197581E-03  1.55679949223E-03
  1.59621005901E-03  1.63661830903E-03  1.67804949878E-03  1.72052952409E-03
  1.76408493636E-03  1.80874295913E-03  1.85453150514E-03  1.90147919371E-03
  1.94961536868E-03  1.99897011671E-03  2.04957428614E-03  2.10145950622E-03
  2.15465820689E-03  2.20920363909E-03  2.26512989548E-03  2.32247193178E-03
  2.38126558865E-03  2.44154761403E-03  2.50335568614E-03  2.56672843705E-03
  2.63170547679E-03  2.69832741812E-03  2.76663590193E-03  2.83667362323E-03
  2.90848435789E-03  2.98211298995E-03  3.05760553971E-03  3.13500919247E-03
  3.21437232802E-03  3.29574455091E-03  3.37917672144E-03  3.46472098741E-03
  3.55243081679E-03  3.64236103108E-03  3.73456783957E-03  3.82910887454E-03
  3.92604322720E-03  4.02543148468E-03  4.12733576787E-03  4.23181977028E-03
  4.33894879780E-03  4.44878980957E-03  4.56141145979E-03  4.67688414065E-03
  4.79528002635E-03  4.91667311817E-03  5.04113929073E-03  5.16875633946E-03
  5.29960402915E-03  5.43376414388E-03  5.57132053809E-03  5.71235918899E-03
  5.85696825034E-03  6.00523810750E-03  6.15726143397E-03  6.31313324927E-03
  6.47295097837E-03  6.63681451253E-03  6.80482627182E-03  6.97709126903E-03
  7.15371717542E-03  7.33481438791E-03  7.52049609817E-03  7.71087836330E-03
  7.90608017841E-03  8.10622355100E-03  8.31143357720E-03  8.52183851993E-03
  8.73756988916E-03  8.95876252399E-03  9.18555467703E-03  9.41808810077E-03
  9.65650813615E-03  9.90096380346E-03  1.01516078955E-02  1.04085970728E-02
  1.06720919622E-02  1.09422572565E-02  1.12192618178E-02  1.15032787829E-02
  1.17944856717E-02  1.20930644980E-02  1.23992018833E-02  1.27130891733E-02
  1.30349225580E-02  1.33649031936E-02  1.37032373287E-02  1.40501364333E-02
  1.44058173305E-02  1.47705023325E-02  1.51444193792E-02  1.55278021811E-02
  1.59208903648E-02  1.63239296232E-02  1.67371718690E-02  1.71608753921E-02
  1.75953050210E-02  1.80407322883E-02  1.84974356005E-02  1.89657004121E-02
  1.94458194039E-02  1.99380926658E-02  2.04428278846E-02  2.09603405364E-02
  2.14909540833E-02  2.20350001761E-02  2.25928188613E-02  2.31647587938E-02
  2.37511774546E-02  2.43524413744E-02  2.49689263629E-02  2.56010177431E-02
  2.62491105929E-02  2.69136099912E-02  2.75949312718E-02  2.82935002829E-02
  2.90097536526E-02  2.97441390627E-02  3.04971155279E-02  3.12691536832E-02
  3.20607360774E-02  3.28723574753E-02  3.37045251667E-02  3.45577592835E-02
  3.54325931248E-02  3.63295734903E-02  3.72492610218E-02  3.81922305540E-02
  3.91590714735E-02  4.01503880875E-02  4.11668000011E-02  4.22089425047E-02
  4.32774669714E-02  4.43730412638E-02  4.54963501514E-02  4.66480957389E-02
  4.78289979048E-02  4.90397947513E-02  5.02812430659E-02  5.15541187943E-02
  5.28592175251E-02  5.41973549875E-02  5.55693675611E-02  5.69761127984E-02
  5.84184699609E-02  5.98973405688E-02  6.14136489644E-02  6.29683428898E-02
  6.45623940793E-02  6.61967988668E-02  6.78725788084E-02  6.95907813212E-02
  7.13524803378E-02  7.31587769772E-02  7.50108002338E-02  7.69097076824E-02
  7.88566862019E-02  8.08529527172E-02  8.28997549600E-02  8.49983722483E-02
  8.71501162861E-02  8.93563319836E-02  9.16183982974E-02  9.39377290926E-02
  9.63157740263E-02  9.87540194542E-02  1.01253989359E-01  1.03817246303E-01
  1.06445392406E-01  1.09140070344E-01  1.11902964379E-01  1.14735801409E-01
  1.17640352050E-01  1.20618431741E-01  1.23671901878E-01  1.26802670979E-01
  1.30012695878E-01  1.33303982944E-01  1.36678589338E-01  1.40138624301E-01
  1.43686250465E-01  1.47323685213E-01  1.51053202060E-01  1.54877132076E-01
  1.58797865341E-01  1.62817852441E-01  1.66939605999E-01  1.71165702246E-01
  1.75498782628E-01  1.79941555462E-01  1.84496797626E-01  1.89167356294E-01
  1.93956150718E-01  1.98866174050E-01  2.03900495214E-01  2.09062260825E-01
  2.14354697155E-01  2.19781112149E-01  2.25344897492E-01  2.31049530731E-01
  2.36898577449E-01  2.42895693489E-01  2.49044627244E-01  2.55349221999E-01
  2.61813418330E-01  2.68441256570E-01  2.75236879333E-01  2.82204534107E-01
  2.89348575900E-01  2.96673469973E-01  3.04183794621E-01  3.11884244044E-01
  3.19779631271E-01  3.27874891178E-01  3.36175083565E-01  3.44685396323E-01
  3.53411148674E-01  3.62357794497E-01  3.71530925738E-01  3.80936275902E-01
  3.90579723638E-01  4.00467296417E-01  4.10605174291E-01  4.20999693767E-01
  4.31657351755E-01  4.42584809640E-01  4.53788897438E-01  4.65276618070E-01
  4.77055151733E-01  4.89131860396E-01  5.01514292394E-01  5.14210187151E-01
  5.27227480014E-01  5.40574307214E-01  5.54259010954E-01  5.68290144618E-01
  5.82676478121E-01  5.97427003392E-01  6.12550939987E-01  6.28057740860E-01
  6.43957098267E-01  6.60258949822E-01  6.76973484714E-01  6.94111150071E-01
  7.11682657493E-01  7.29698989742E-01  7.48171407614E-01  7.67111456971E-01
  7.86530975960E-01  8.06442102412E-01  8.26857281431E-01  8.47789273167E-01
  8.69251160796E-01  8.91256358698E-01  9.13818620836E-01  9.36952049360E-01
  9.60671103415E-01  9.84990608183E-01  1.00992576414E+00  1.03549215658E+00
  1.06170576533E+00  1.08858297474E+00  1.11614058395E+00  1.14439581735E+00
  1.17336633540E+00  1.20307024560E+00  1.23352611386E+00  1.26475297611E+00
  1.29677035013E+00  1.32959824784E+00  1.36325718773E+00  1.39776820774E+00
  1.43315287839E+00  1.46943331623E+00  1.50663219773E+00
  </PP_RAB>
</PP_MESH>


<PP_LOCAL>
 -1.63980352840E+00 -1.63980352850E+00 -1.63980352860E+00 -1.63980352880E+00
 -1.63980352890E+00 -1.63980352910E+00 -1.63980352930E+00 -1.63980352940E+00
 -1.63980352960E+00 -1.63980352980E+00 -1.63980353000E+00 -1.63980353020E+00
 -1.63980353050E+00 -1.63980353070E+00 -1.63980353100E+00 -1.63980353120E+00
 -1.63980353150E+00 -1.63980353180E+00 -1.63980353210E+00 -1.63980353240E+00
 -1.63980353270E+00 -1.63980353310E+00 -1.63980353350E+00 -1.63980353390E+00
 -1.63980353430E+00 -1.63980353470E+00 -1.63980353520E+00 -1.63980353570E+00
 -1.63980353620E+00 -1.63980353670E+00 -1.63980353720E+00 -1.63980353780E+00
 -1.63980353850E+00 -1.63980353910E+00 -1.63980353980E+00 -1.63980354050E+00
 -1.63980354130E+00 -1.63980354200E+00 -1.63980354290E+00 -1.63980354370E+00
 -1.63980354470E+00 -1.63980354560E+00 -1.63980354670E+00 -1.63980354770E+00
 -1.63980354880E+00 -1.63980355000E+00 -1.63980355130E+00 -1.63980355260E+00
 -1.63980355390E+00 -1.63980355540E+00 -1.63980355690E+00 -1.63980355850E+00
 -1.63980356020E+00 -1.63980356190E+00 -1.63980356380E+00 -1.63980356570E+00
 -1.63980356780E+00 -1.63980356990E+00 -1.63980357220E+00 -1.63980357460E+00
 -1.63980357710E+00 -1.63980357970E+00 -1.63980358250E+00 -1.63980358540E+00
 -1.63980358840E+00 -1.63980359160E+00 -1.63980359500E+00 -1.63980359850E+00
 -1.63980360230E+00 -1.63980360620E+00 -1.63980361030E+00 -1.63980361470E+00
 -1.63980361920E+00 -1.63980362400E+00 -1.63980362900E+00 -1.63980363430E+00
 -1.63980363990E+00 -1.63980364570E+00 -1.63980365190E+00 -1.63980365830E+00
 -1.63980366510E+00 -1.63980367230E+00 -1.63980367980E+00 -1.63980368770E+00
 -1.63980369600E+00 -1.63980370470E+00 -1.63980371390E+00 -1.63980372350E+00
 -1.63980373370E+00 -1.63980374430E+00 -1.63980375550E+00 -1.63980376730E+00
 -1.63980377970E+00 -1.63980379270E+00 -1.63980380640E+00 -1.63980382080E+00
 -1.63980383590E+00 -1.63980385180E+00 -1.63980386850E+00 -1.63980388610E+00
 -1.63980390450E+00 -1.63980392400E+00 -1.63980394440E+00 -1.63980396580E+00
 -1.63980398840E+00 -1.63980401210E+00 -1.63980403700E+00 -1.63980406330E+00
 -1.63980409080E+00 -1.63980411980E+00 -1.63980415020E+00 -1.63980418220E+00
 -1.63980421590E+00 -1.63980425130E+00 -1.63980428850E+00 -1.63980432760E+00
 -1.63980436870E+00 -1.63980441190E+00 -1.63980445730E+00 -1.63980450510E+00
 -1.63980455530E+00 -1.63980460810E+00 -1.63980466360E+00 -1.63980472190E+00
 -1.63980478320E+00 -1.63980484770E+00 -1.63980491550E+00 -1.63980498670E+00
 -1.63980506160E+00 -1.63980514040E+00 -1.63980522320E+00 -1.63980531020E+00
 -1.63980540170E+00 -1.63980549780E+00 -1.63980559900E+00 -1.63980570530E+00
 -1.63980581700E+00 -1.63980593450E+00 -1.63980605800E+00 -1.63980618780E+00
 -1.63980632430E+00 -1.63980646770E+00 -1.63980661860E+00 -1.63980677720E+00
 -1.63980694390E+00 -1.63980711910E+00 -1.63980730330E+00 -1.63980749700E+00
 -1.63980770060E+00 -1.63980791470E+00 -1.63980813970E+00 -1.63980837620E+00
 -1.63980862490E+00 -1.63980888640E+00 -1.63980916120E+00 -1.63980945010E+00
 -1.63980975390E+00 -1.63981007320E+00 -1.63981040890E+00 -1.63981076180E+00
 -1.63981113280E+00 -1.63981152280E+00 -1.63981193280E+00 -1.63981236390E+00
 -1.63981281700E+00 -1.63981329340E+00 -1.63981379420E+00 -1.63981432060E+00
 -1.63981487410E+00 -1.63981545590E+00 -1.63981606760E+00 -1.63981671060E+00
 -1.63981738660E+00 -1.63981809730E+00 -1.63981884440E+00 -1.63981962980E+00
 -1.63982045540E+00 -1.63982132340E+00 -1.63982223590E+00 -1.63982319520E+00
 -1.63982420370E+00 -1.63982526390E+00 -1.63982637840E+00 -1.63982755010E+00
 -1.63982878180E+00 -1.63983007670E+00 -1.63983143800E+00 -1.63983286910E+00
 -1.63983437350E+00 -1.63983595510E+00 -1.63983761780E+00 -1.63983936570E+00
 -1.63984120330E+00 -1.63984313500E+00 -1.63984516580E+00 -1.63984730080E+00
 -1.63984954510E+00 -1.63985190460E+00 -1.63985438500E+00 -1.63985699260E+00
 -1.63985973390E+00 -1.63986261570E+00 -1.63986564530E+00 -1.63986883020E+00
 -1.63987217830E+00 -1.63987569820E+00 -1.63987939850E+00 -1.63988328860E+00
 -1.63988737800E+00 -1.63989167720E+00 -1.63989619670E+00 -1.63990094800E+00
 -1.63990594290E+00 -1.63991119380E+00 -1.63991671400E+00 -1.63992251720E+00
 -1.63992861790E+00 -1.63993503140E+00 -1.63994177370E+00 -1.63994886170E+00
 -1.63995631310E+00 -1.63996414650E+00 -1.63997238150E+00 -1.63998103870E+00
 -1.63999013970E+00 -1.63999970740E+00 -1.64000976550E+00 -1.64002033940E+00
 -1.64003145530E+00 -1.64004314110E+00 -1.64005542600E+00 -1.64006834070E+00
 -1.64008191760E+00 -1.64009619050E+00 -1.64011119510E+00 -1.64012696890E+00
 -1.64014355140E+00 -1.64016098400E+00 -1.64017931040E+00 -1.64019857620E+00
 -1.64021882970E+00 -1.64024012150E+00 -1.64026250490E+00 -1.64028603570E+00
 -1.64031077280E+00 -1.64033677800E+00 -1.64036411630E+00 -1.64039285610E+00
 -1.64042306910E+00 -1.64045483090E+00 -1.64048822090E+00 -1.64052332250E+00
 -1.64056022350E+00 -1.64059901600E+00 -1.64063979700E+00 -1.64068266830E+00
 -1.64072773720E+00 -1.64077511620E+00 -1.64082492380E+00 -1.64087728430E+00
 -1.64093232850E+00 -1.64099019410E+00 -1.64105102550E+00 -1.64111497460E+00
 -1.64118220130E+00 -1.64125287350E+00 -1.64132716760E+00 -1.64140526930E+00
 -1.64148737350E+00 -1.64157368530E+00 -1.64166442010E+00 -1.64175980460E+00
 -1.64186007690E+00 -1.64196548730E+00 -1.64207629900E+00 -1.64219278840E+00
 -1.64231524630E+00 -1.64244397840E+00 -1.64257930580E+00 -1.64272156620E+00
 -1.64287111440E+00 -1.64302832350E+00 -1.64319358560E+00 -1.64336731280E+00