<UPF version="2.0.1">
  <PP_INFO>
    Generated in analytical, separable form
    Author: Goedecker/Hartwigsen/Hutter/Teter
    Generation date: Phys.Rev.B58, 3641 (1998); B54, 1703 (1996)
    Pseudopotential type: NC
    Element:  W
    Functional: SLA-PW-PBX-PBC

    Suggested minimum cutoff for wavefunctions:   0. Ry
    Suggested minimum cutoff for charge density:   0. Ry
    The Pseudo was generated with a Non-Relativistic Calculation
    Local Potential: unknown format, L component and cutoff radius: -3   0.0000

    Valence configuration: 
    nl pn  l   occ       Rcut    Rcut US       E pseu

    Generation configuration: not available.
    Converted from CPMD format using cpmd2upf v.5.0.1 - PG 10Jul2012
    Atomic orbitals could not be generated by ld1.x - use with care
  </PP_INFO>
  <!--                               -->
  <!-- END OF HUMAN READABLE SECTION -->
  <!--                               -->
  <PP_HEADER generated="Generated in analytical, separable form"
             author="Goedecker/Hartwigsen/Hutter/Teter"
             date="Phys.Rev.B58, 3641 (1998); B54, 1703 (1996)"
             comment="Atomic orbitals could not be generated by ld1.x - use with care"
             element=" W"
             pseudo_type="NC"
             relativistic="no"
             is_ultrasoft="F"
             is_paw="F"
             is_coulomb="F"
             has_so="F"
             has_wfc="F"
             has_gipaw="F"
             paw_as_gipaw="F"
             core_correction="F"
             functional="SLA-PW-PBX-PBC"
             z_valence="1.400000000000000E+001"
             total_psenergy="0.000000000000000E+000"
             wfc_cutoff="0.000000000000000E+000"
             rho_cutoff="0.000000000000000E+000"
             l_max="2"
             l_max_rho="0"
             l_local="-3"
             mesh_size="1273"
             number_of_wfc="0"
             number_of_proj="7"/>
  <PP_MESH dx="1.250000000000000E-002" mesh="1273" xmin="-7.000000000000000E+000" rmax="9.908072350210804E+001"
zmesh="7.400000000000000E+001">
    <PP_R type="real" size="1273" columns="4">
 1.232272926425022E-005  1.247773011714895E-005  1.263468064076462E-005  1.279360535893586E-005 
 1.295452910397324E-005  1.311747702053931E-005  1.328247456957755E-005  1.344954753229069E-005 
 1.361872201416906E-005  1.379002444906966E-005  1.396348160334645E-005  1.413912058003268E-005 
 1.431696882307581E-005  1.449705412162563E-005  1.467940461437646E-005  1.486404879396376E-005 
 1.505101551141626E-005  1.524033398066395E-005  1.543203378310280E-005  1.562614487221700E-005 
 1.582269757825912E-005  1.602172261298936E-005  1.622325107447434E-005  1.642731445194614E-005 
 1.663394463072272E-005  1.684317389718986E-005  1.705503494384614E-005  1.726956087441114E-005 
 1.748678520899795E-005  1.770674188935081E-005  1.792946528414853E-005  1.815499019437469E-005 
 1.838335185875532E-005  1.861458595926510E-005  1.884872862670269E-005  1.908581644633624E-005 
 1.932588646361993E-005  1.956897618998237E-005  1.981512360868788E-005  2.006436718077144E-005 
 2.031674585104827E-005  2.057229905419907E-005  2.083106672093176E-005  2.109308928422071E-005 
 2.135840768562456E-005  2.162706338168330E-005  2.189909835039604E-005  2.217455509778008E-005 
 2.245347666451262E-005  2.273590663265596E-005  2.302188913246722E-005  2.331146884929381E-005 
 2.360469103055567E-005  2.390160149281514E-005  2.420224662893608E-005  2.450667341533264E-005 
 2.481492941930956E-005  2.512706280649461E-005  2.544312234836456E-005  2.576315742986590E-005 
 2.608721805713121E-005  2.641535486529280E-005  2.674761912639455E-005  2.708406275740323E-005 
 2.742473832832073E-005  2.776969907039809E-005  2.811899888445310E-005  2.847269234929235E-005 
 2.883083473023930E-005  2.919348198776966E-005  2.956069078625521E-005  2.993251850281780E-005 
 3.030902323629464E-005  3.069026381631631E-005  3.107629981249913E-005  3.146719154375289E-005 
 3.186300008770585E-005  3.226378729024829E-005  3.266961577519599E-005  3.308054895407545E-005 
 3.349665103603187E-005  3.391798703786214E-005  3.434462279417376E-005  3.477662496767162E-005 
 3.521406105957430E-005  3.565699942016110E-005  3.610550925945203E-005  3.655966065802198E-005 
 3.701952457795092E-005  3.748517287391201E-005  3.795667830439882E-005  3.843411454309416E-005 
 3.891755619038166E-005  3.940707878500227E-005  3.990275881585738E-005  4.040467373396027E-005 
 4.091290196453804E-005  4.142752291928571E-005  4.194861700877444E-005  4.247626565501595E-005 
 4.301055130418469E-005  4.355155743950036E-005  4.409936859427228E-005  4.465407036510786E-005 
 4.521574942528746E-005  4.578449353830692E-005  4.636039157159101E-005  4.694353351037911E-005 
 4.753401047178552E-005  4.813191471903689E-005  4.873733967588825E-005  4.935037994122086E-005 
 4.997113130382340E-005  5.059969075735919E-005  5.123615651552173E-005  5.188062802738059E-005 
 5.253320599292068E-005  5.319399237877680E-005  5.386309043416609E-005  5.454060470702106E-005 
 5.522664106032522E-005  5.592130668865455E-005  5.662471013492675E-005  5.733696130736136E-005 
 5.805817149665324E-005  5.878845339336175E-005  5.952792110551900E-005  6.027669017645948E-005 
 6.103487760287386E-005  6.180260185309018E-005  6.257998288558440E-005  6.336714216772447E-005 
 6.416420269474970E-005  6.497128900898905E-005  6.578852721932113E-005  6.661604502087907E-005 
 6.745397171500293E-005  6.830243822944344E-005  6.916157713881967E-005  7.003152268533412E-005 
 7.091241079974844E-005  7.180437912262264E-005  7.270756702582189E-005  7.362211563429364E-005 
 7.454816784811853E-005  7.548586836483918E-005  7.643536370206903E-005  7.739680222038629E-005 
 7.837033414651549E-005  7.935611159680071E-005  8.035428860097425E-005  8.136502112622377E-005 
 8.238846710156267E-005  8.342478644250685E-005  8.447414107606164E-005  8.553669496602360E-005 
 8.661261413859977E-005  8.770206670834983E-005  8.880522290445431E-005  8.992225509731316E-005 
 9.105333782547928E-005  9.219864782293009E-005  9.335836404668286E-005  9.453266770475699E-005 
 9.572174228448808E-005  9.692577358119864E-005  9.814494972722826E-005  9.937946122133022E-005 
 1.006295009584371E-004  1.018952642598009E-004  1.031769489035130E-004  1.044747551554064E-004 
 1.057888858003483E-004  1.071195461739257E-004  1.084669441945291E-004  1.098312903958407E-004 
 1.112127979597301E-004  1.126116827495650E-004  1.140281633439397E-004  1.154624610708289E-004 
 1.169148000421707E-004  1.183854071888842E-004  1.198745122963278E-004  1.213823480402044E-004 
 1.229091500229164E-004  1.244551568103803E-004  1.260206099693017E-004  1.276057541049218E-004 
 1.292108368992367E-004  1.308361091496984E-004  1.324818248084031E-004  1.341482410217704E-004 
 1.358356181707241E-004  1.375442199113767E-004  1.392743132162262E-004  1.410261684158717E-004 
 1.428000592412521E-004  1.445962628664179E-004  1.464150599518400E-004  1.482567346882632E-004 
 1.501215748411122E-004  1.520098717954549E-004  1.539219206015321E-004  1.558580200208599E-004 
 1.578184725729114E-004  1.598035845823867E-004  1.618136662270760E-004  1.638490315863257E-004 
 1.659099986901142E-004  1.679968895687444E-004  1.701100303031621E-004  1.722497510759063E-004 
 1.744163862227010E-004  1.766102742846958E-004  1.788317580613639E-004  1.810811846640652E-004 
 1.833589055702829E-004  1.856652766785425E-004  1.880006583640220E-004  1.903654155348611E-004 
 1.927599176891791E-004  1.951845389728092E-004  1.976396582377598E-004  2.001256591014110E-004 
 2.026429300064554E-004  2.051918642815939E-004  2.077728602029923E-004  2.103863210565147E-004 
 2.130326552007365E-004  2.157122761307515E-004  2.184256025427821E-004  2.211730583996004E-004 
 2.239550729967737E-004  2.267720810297429E-004  2.296245226617441E-004  2.325128435925863E-004 
 2.354374951282907E-004  2.383989342516103E-004  2.413976236934331E-004  2.444340320050851E-004 
 2.475086336315430E-004  2.506219089855660E-004  2.537743445227623E-004  2.569664328175980E-004 
 2.601986726403639E-004  2.634715690351080E-004  2.667856333985511E-004  2.701413835599923E-004 
 2.735393438622215E-004  2.769800452434494E-004  2.804640253202668E-004  2.839918284716491E-004 
 2.875640059240159E-004  2.911811158373618E-004  2.948437233924699E-004  2.985524008792222E-004 
 3.023077277860216E-004  3.061102908903374E-004  3.099606843503909E-004  3.138595097979943E-004 
 3.178073764325555E-004  3.218049011162687E-004  3.258527084704983E-004  3.299514309733789E-004 
 3.341017090586405E-004  3.383041912156777E-004  3.425595340908776E-004  3.468684025902221E-004 
 3.512314699831804E-004  3.556494180079096E-004  3.601229369777768E-004  3.646527258892228E-004 
 3.692394925309807E-004  3.738839535946700E-004  3.785868347867814E-004  3.833488709420689E-004 
 3.881708061383707E-004  3.930533938128713E-004  3.979973968798282E-004  4.030035878497798E-004 
 4.080727489502500E-004  4.132056722479743E-004  4.184031597726607E-004  4.236660236423093E-004 
 4.289950861901075E-004  4.343911800929199E-004  4.398551485013977E-004  4.453878451717212E-004 
 4.509901345990011E-004  4.566628921523589E-004  4.624070042117031E-004  4.682233683062301E-004 
 4.741128932546627E-004  4.800764993072563E-004  4.861151182895901E-004  4.922296937481653E-004 
 4.984211810978381E-004  5.046905477711030E-004  5.110387733692579E-004  5.174668498154684E-004 
 5.239757815097568E-004  5.305665854859435E-004  5.372402915705583E-004  5.439979425437547E-004 
 5.508405943022463E-004  5.577693160242912E-004  5.647851903367556E-004  5.718893134842746E-004 
 5.790827955005431E-004  5.863667603817618E-004  5.937423462622624E-004  6.012107055923449E-004 
 6.087730053183489E-004  6.164304270649919E-004  6.241841673200017E-004  6.320354376210673E-004 
 6.399854647451477E-004  6.480354909001551E-004  6.561867739190537E-004  6.644405874563998E-004 
 6.727982211873506E-004  6.812609810091807E-004  6.898301892453299E-004  6.985071848520188E-004 
 7.072933236274650E-004  7.161899784237275E-004  7.251985393612180E-004  7.343204140459120E-004 
 7.435570277892869E-004  7.529098238310328E-004  7.623802635645591E-004  7.719698267653418E-004 
 7.816800118221417E-004  7.915123359711288E-004  8.014683355329561E-004  8.115495661528105E-004 
 8.217576030434861E-004  8.320940412315167E-004  8.425604958063977E-004  8.531586021729514E-004 
 8.638900163068595E-004  8.747564150134129E-004  8.857594961895184E-004  8.969009790889946E-004 
 9.081826045912132E-004  9.196061354731111E-004  9.311733566846295E-004  9.428860756276171E-004 
 9.547461224382377E-004  9.667553502729359E-004  9.789156355979932E-004  9.912288784827315E-004 
 1.003697002896404E-003  1.016321957008816E-003  1.029105713494734E-003  1.042050269842118E-003 
 1.055157648664232E-003  1.068429898015685E-003  1.081869091712440E-003  1.095477329655855E-003 
 1.109256738160795E-003  1.123209470287872E-003  1.137337706179870E-003  1.151643653402390E-003 
 1.166129547288791E-003  1.180797651289465E-003  1.195650257325504E-003  1.210689686146820E-003 
 1.225918287694764E-003  1.241338441469310E-003  1.256952556900859E-003  1.272763073726712E-003 
 1.288772462372293E-003  1.304983224337146E-003  1.321397892585812E-003  1.338019031943599E-003 
 1.354849239497348E-003  1.371891145001231E-003  1.389147411287654E-003  1.406620734683334E-003 
 1.424313845430600E-003  1.442229508114003E-003  1.460370522092288E-003  1.478739721935796E-003 
 1.497339977869377E-003  1.516174196220862E-003  1.535245319875186E-003  1.554556328734222E-003 
 1.574110240182391E-003  1.593910109558142E-003  1.613959030631347E-003  1.634260136086712E-003 
 1.654816598013269E-003  1.675631628400017E-003  1.696708479637801E-003  1.718050445027509E-003 
 1.739660859294652E-003  1.761543099110428E-003  1.783700583619327E-003  1.806136774973385E-003 
 1.828855178873145E-003  1.851859345115439E-003  1.875152868148044E-003  1.898739387631326E-003 
 1.922622589006941E-003  1.946806204073693E-003  1.971294011570641E-003  1.996089837767525E-003 
 2.021197557062636E-003  2.046621092588197E-003  2.072364416823358E-003  2.098431552214906E-003 
 2.124826571805779E-003  2.151553599871491E-003  2.178616812564551E-003  2.206020438567006E-003 
 2.233768759751170E-003  2.261866111848683E-003  2.290316885127975E-003  2.319125525080254E-003 
 2.348296533114124E-003  2.377834467258940E-003  2.407743942877007E-003  2.438029633384741E-003 
 2.468696270982901E-003  2.499748647396004E-003  2.531191614621042E-003  2.563030085685612E-003 
 2.595269035415597E-003  2.627913501212481E-003  2.660968583840460E-003  2.694439448223449E-003 
 2.728331324252101E-003  2.762649507601001E-003  2.797399360556117E-003  2.832586312852674E-003 
 2.868215862523556E-003  2.904293576758387E-003  2.940825092773418E-003  2.977816118692350E-003 
 3.015272434438242E-003  3.053199892636634E-003  3.091604419530034E-003  3.130492015903904E-003 
 3.169868758024293E-003  3.209740798587273E-003  3.250114367680300E-003  3.290995773755686E-003 
 3.332391404616305E-003  3.374307728413697E-003  3.416751294658737E-003  3.459728735245002E-003 
 3.503246765485022E-003  3.547312185159559E-003  3.591931879580090E-003  3.637112820664647E-003 
 3.682862068027199E-003  3.729186770080719E-003  3.776094165154154E-003  3.823591582623418E-003 
 3.871686444056624E-003  3.920386264373722E-003  3.969698653020715E-003  4.019631315158658E-003 
 4.070192052867597E-003  4.121388766365666E-003  4.173229455243513E-003  4.225722219714242E-003 
 4.278875261879099E-003  4.332696887009064E-003  4.387195504842564E-003  4.442379630899516E-003 
 4.498257887811888E-003  4.554839006671005E-003  4.612131828391808E-003  4.670145305094251E-003 
 4.728888501502102E-003  4.788370596359308E-003  4.848600883864213E-003  4.909588775121775E-003 
 4.971343799614087E-003  5.033875606689366E-003  5.097193967069690E-003  5.161308774377690E-003 
 5.226230046682451E-003  5.291967928064853E-003  5.358532690202608E-003  5.425934733975226E-003 
 5.494184591089179E-003  5.563292925723494E-003  5.633270536196062E-003  5.704128356650887E-003 
 5.775877458766579E-003  5.848529053486316E-003  5.922094492769587E-003  5.996585271365947E-003 
 6.072013028611105E-003  6.148389550245590E-003  6.225726770256297E-003  6.304036772741196E-003 
 6.383331793797498E-003  6.463624223433571E-003  6.544926607504900E-003  6.627251649674410E-003 
 6.710612213397429E-003  6.795021323931637E-003  6.880492170372289E-003  6.967038107713031E-003 
 7.054672658932651E-003  7.143409517108074E-003  7.233262547553924E-003  7.324245789989018E-003 
 7.416373460730089E-003  7.509659954913130E-003  7.604119848742648E-003  7.699767901769233E-003 
 7.796619059195768E-003  7.894688454212649E-003  7.993991410362368E-003  8.094543443933861E-003 
 8.196360266386942E-003  8.299457786807270E-003  8.403852114392167E-003  8.509559560967706E-003 
 8.616596643537481E-003  8.724980086863409E-003  8.834726826079021E-003  8.945854009335598E-003 
 9.058379000481615E-003  9.172319381775873E-003  9.287692956634763E-003  9.404517752414084E-003 
 9.522812023225861E-003  9.642594252790578E-003  9.763883157325303E-003  9.886697688468137E-003 
 1.001105703623944E-002  1.013698063204030E-002  1.026448815168877E-002  1.039359951849420E-002 
 1.052433490637034E-002  1.065671474298753E-002  1.079075971296456E-002  1.092649076110071E-002 
 1.106392909564841E-002  1.120309619162704E-002  1.134401379417848E-002  1.148670392196484E-002 
 1.163118887060889E-002  1.177749121617781E-002  1.192563381871075E-002  1.207563982579076E-002 
 1.222753267616162E-002  1.238133610339024E-002  1.253707413957504E-002  1.269477111910103E-002 
 1.285445168244209E-002  1.301614078001111E-002  1.317986367605855E-002  1.334564595262002E-002 
 1.351351351351352E-002  1.368349258838696E-002  1.385560973681661E-002  1.402989185245710E-002 
 1.420636616724357E-002  1.438506025564675E-002  1.456600203898151E-002  1.474921978976962E-002 
 1.493474213615741E-002  1.512259806638893E-002  1.531281693333550E-002  1.550542845908206E-002 
 1.570046273957140E-002  1.589795024930664E-002  1.609792184611295E-002  1.630040877595921E-002 
 1.650544267784014E-002  1.671305558872007E-002  1.692327994853872E-002  1.713614860528000E-002 
 1.735169482010462E-002  1.756995227254718E-002  1.779095506577868E-002  1.801473773193518E-002 
 1.824133523751356E-002  1.847078298883510E-002  1.870311683757773E-002  1.893837308637802E-002 
 1.917658849450348E-002  1.941780028359628E-002  1.966204614348922E-002  1.990936423809481E-002 
 2.015979321136853E-002  2.041337219334693E-002  2.067014080626188E-002  2.093013917073154E-002 
 2.119340791202932E-002  2.145998816643168E-002  2.172992158764572E-002  2.200325035331771E-002 
 2.228001717162336E-002  2.256026528794113E-002  2.284403849160935E-002  2.313138112276845E-002 
 2.342233807928914E-002  2.371695482378783E-002  2.401527739073026E-002  2.431735239362445E-002 
 2.462322703230418E-002  2.493294910030406E-002  2.524656699232734E-002  2.556412971180771E-002 
 2.588568687856617E-002  2.621128873656425E-002  2.654098616175470E-002  2.687483067003098E-002 
 2.721287442527672E-002  2.755517024751643E-002  2.790177162116875E-002  2.825273270340347E-002 
 2.860810833260373E-002  2.896795403693459E-002  2.933232604301951E-002  2.970128128472571E-002 
 3.007487741206039E-002  3.045317280017851E-002  3.083622655850412E-002  3.122409853996629E-002 
 3.161684935035124E-002  3.201454035777217E-002  3.241723370225810E-002  3.282499230546337E-002 
 3.323787988049933E-002  3.365596094188962E-002  3.407930081565066E-002  3.450796564949903E-002 
 3.494202242318713E-002  3.538153895896895E-002  3.582658393219740E-002  3.627722688205502E-002 
 3.673353822241954E-002  3.719558925286629E-002  3.766345216980881E-002  3.813720007777975E-002 
 3.861690700085359E-002  3.910264789421300E-002  3.959449865586084E-002  4.009253613847930E-002 
 4.059683816143831E-002  4.110748352295494E-002  4.162455201240585E-002  4.214812442279451E-002 
 4.267828256337525E-002  4.321510927243618E-002  4.375868843024273E-002  4.430910497214426E-002 
 4.486644490184526E-002  4.543079530484365E-002  4.600224436203812E-002  4.658088136350644E-002 
 4.716679672245733E-002  4.776008198935772E-002  4.836082986623758E-002  4.896913422117492E-002 
 4.958509010296279E-002  5.020879375596089E-002  5.084034263513394E-002  5.147983542127922E-002 
 5.212737203644562E-002  5.278305365954668E-002  5.344698274216999E-002  5.411926302458549E-002 
 5.479999955195509E-002  5.548929869074615E-002  5.618726814535149E-002  5.689401697491842E-002 
 5.760965561038945E-002  5.833429587175738E-002  5.906805098553730E-002  5.981103560245860E-002 
 6.056336581537929E-002  6.132515917742574E-002  6.209653472036069E-002  6.287761297318206E-002 
 6.366851598095599E-002  6.446936732388656E-002  6.528029213662542E-002  6.610141712782443E-002 
 6.693287059993402E-002  6.777478246925084E-002  6.862728428621734E-002  6.949050925597686E-002 
 7.036459225918718E-002  7.124966987309586E-002  7.214588039288079E-002  7.305336385325904E-002 
 7.397226205036760E-002  7.490271856391927E-002  7.584487877963730E-002  7.679888991197224E-002 
 7.776490102710451E-002  7.874306306623616E-002  7.973352886917594E-002  8.073645319822063E-002 
 8.175199276233715E-002  8.278030624164850E-002  8.382155431222794E-002  8.487589967120496E-002 
 8.594350706218697E-002  8.702454330100085E-002  8.811917730175831E-002  8.922758010324905E-002 
 9.034992489566585E-002  9.148638704766594E-002  9.263714413377273E-002  9.380237596212214E-002 
 9.498226460255806E-002  9.617699441508107E-002  9.738675207865502E-002  9.861172662037615E-002 
 9.985210944500883E-002  1.011080943648930E-001  1.023798776302277E-001  1.036676579597356E-001 
 1.049716365717132E-001  1.062920172154716E-001  1.076290062031727E-001  1.089828124420659E-001 
 1.103536474671305E-001  1.117417254741280E-001  1.131472633530712E-001  1.145704807221132E-001 
 1.160115999618635E-001  1.174708462501352E-001  1.189484475971299E-001  1.204446348810641E-001 
 1.219596418842450E-001  1.234937053295990E-001  1.250470649176608E-001  1.266199633640261E-001 
 1.282126464372774E-001  1.298253629973853E-001  1.314583650345931E-001  1.331119077087917E-001 
 1.347862493893882E-001  1.364816516956764E-001  1.381983795377163E-001  1.399367011577256E-001 
 1.416968881719943E-001  1.434792156133245E-001  1.452839619740049E-001  1.471114092493263E-001 
 1.489618429816433E-001  1.508355523049915E-001  1.527328299902647E-001  1.546539724909612E-001 
 1.565992799895054E-001  1.585690564441515E-001  1.605636096364784E-001  1.625832512194803E-001 
 1.646282967662632E-001  1.666990658193549E-001  1.687958819406326E-001  1.709190727618815E-001 
 1.730689700359870E-001  1.752459096887722E-001  1.774502318714868E-001  1.796822810139566E-001 
 1.819424058784013E-001  1.842309596139292E-001  1.865482998117176E-001  1.888947885608870E-001 
 1.912707925050785E-001  1.936766828997424E-001  1.961128356701476E-001  1.985796314701209E-001 
 2.010774557415249E-001  2.036066987744837E-001  2.061677557683671E-001  2.087610268935409E-001 
 2.113869173538943E-001  2.140458374501544E-001  2.167382026439956E-001  2.194644336229573E-001 
 2.222249563661765E-001  2.250202022109480E-001  2.278506079201222E-001  2.307166157503495E-001 
 2.336186735211845E-001  2.365572346850580E-001  2.395327583981304E-001  2.425457095920358E-001 
 2.455965590465279E-001  2.486857834630413E-001  2.518138655391759E-001  2.549812940441202E-001 
 2.581885638950224E-001  2.614361762343219E-001  2.647246385080541E-001  2.680544645451396E-001 
 2.714261746376713E-001  2.748402956222111E-001  2.782973609621086E-001  2.817979108308570E-001 
 2.853424921964949E-001  2.889316589070723E-001  2.925659717771901E-001  2.962459986756280E-001 
 2.999723146140763E-001  3.037455018369814E-001  3.075661499125235E-001  3.114348558247377E-001 
 3.153522240667935E-001  3.193188667354490E-001  3.233354036266912E-001  3.274024623325810E-001 
 3.315206783393157E-001  3.356906951265250E-001  3.399131642678159E-001  3.441887455325824E-001 
 3.485181069890956E-001  3.529019251088916E-001  3.573408848724703E-001  3.618356798763261E-001 
 3.663870124413231E-001  3.709955937224340E-001  3.756621438198605E-001  3.803873918915494E-001 
 3.851720762671256E-001  3.900169445632573E-001  3.949227538004723E-001  3.998902705214455E-001 
 4.049202709107706E-001  4.100135409162424E-001  4.151708763716613E-001  4.203930831211848E-001 
 4.256809771452426E-001  4.310353846880340E-001  4.364571423866310E-001  4.419470974017051E-001 
 4.475061075498963E-001  4.531350414378507E-001  4.588347785979401E-001  4.646062096256919E-001 
 4.704502363189466E-001  4.763677718187643E-001  4.823597407521067E-001  4.884270793763101E-001 
 4.945707357253785E-001  5.007916697581162E-001  5.070908535081219E-001  5.134692712356728E-001 
 5.199279195815155E-001  5.264678077225944E-001  5.330899575297372E-001  5.397954037273237E-001 
 5.465851940549651E-001  5.534603894312138E-001  5.604220641193347E-001  5.674713058951623E-001 
 5.746092162170650E-001  5.818369103980533E-001  5.891555177800477E-001  5.965661819103413E-001 
 6.040700607202819E-001  6.116683267061997E-001  6.193621671126148E-001  6.271527841177432E-001 
 6.350413950213419E-001  6.430292324349149E-001  6.511175444743086E-001  6.593075949547357E-001 
 6.676006635882462E-001  6.759980461836861E-001  6.845010548491711E-001  6.931110181971044E-001 
 7.018292815517766E-001  7.106572071595739E-001  7.195961744018330E-001  7.286475800103726E-001 
 7.378128382857336E-001  7.470933813181680E-001  7.564906592114075E-001  7.660061403092409E-001 
 7.756413114249492E-001  7.853976780736222E-001  7.952767647073974E-001  8.052801149536620E-001 
 8.154092918562432E-001  8.256658781196402E-001  8.360514763563235E-001  8.465677093371468E-001 
 8.572162202449101E-001  8.679986729311067E-001  8.789167521759056E-001  8.899721639514021E-001 
 9.011666356881786E-001  9.125019165452183E-001  9.239797776832183E-001  9.356020125413330E-001 
 9.473704371174042E-001  9.592868902517153E-001  9.713532339143118E-001  9.835713534959415E-001 
 9.959431581026466E-001  1.008470580854067E+000  1.021155579185496E+000  1.034000135153728E+000 
 1.047006255746769E+000  1.060175973197421E+000  1.073511345300830E+000  1.087014455736018E+000 
 1.100687414391461E+000  1.114532357694771E+000  1.128551448946504E+000  1.142746878658190E+000 
 1.157120864894603E+000  1.171675653620337E+000  1.186413519050741E+000  1.201336764007275E+000 
 1.216447720277323E+000  1.231748748978547E+000  1.247242240927809E+000  1.262930617014752E+000 
 1.278816328580056E+000  1.294901857798472E+000  1.311189718066668E+000  1.327682454395947E+000 
 1.344382643809917E+000  1.361292895747150E+000  1.378415852468916E+000  1.395754189472039E+000 
 1.413310615906949E+000  1.431087875000999E+000  1.449088744487089E+000  1.467316037037699E+000 
 1.485772600704373E+000  1.504461319362735E+000  1.523385113163098E+000  1.542546938986744E+000 
 1.561949790907943E+000  1.581596700661783E+000  1.601490738117883E+000  1.621635011760074E+000 
 1.642032669172094E+000  1.662686897529414E+000  1.683600924097236E+000  1.704778016734759E+000 
 1.726221484405796E+000  1.747934677695797E+000  1.769920989335388E+000  1.792183854730495E+000 
 1.814726752499129E+000  1.837553205014932E+000  1.860666778957550E+000  1.884071085869937E+000 
 1.907769782722662E+000  1.931766572485325E+000  1.956065204705149E+000  1.980669476092854E+000 
 2.005583231115902E+000  2.030810362599202E+000  2.056354812333373E+000  2.082220571690659E+000 
 2.108411682248582E+000  2.134932236421454E+000  2.161786378099820E+000  2.188978303297951E+000 
 2.216512260809484E+000  2.244392552871299E+000  2.272623535835751E+000  2.301209620851367E+000 
 2.330155274552085E+000  2.359465019755193E+000  2.389143436168006E+000  2.419195161103471E+000 
 2.449624890204748E+000  2.480437378178919E+000  2.511637439539921E+000  2.543229949360817E+000 
 2.575219844035543E+000  2.607612122050224E+000  2.640411844764202E+000  2.673624137200886E+000 
 2.707254188848538E+000  2.741307254471149E+000  2.775788654929505E+000  2.810703778012576E+000 
 2.846058079279386E+000  2.881857082911433E+000  2.918106382575869E+000  2.954811642299516E+000 
 2.991978597353881E+000  3.029613055151312E+000  3.067720896152407E+000  3.106308074784852E+000 
 3.145380620373815E+000  3.184944638084035E+000  3.225006309873779E+000  3.265571895460767E+000 
 3.306647733300279E+000  3.348240241575545E+000  3.390355919200603E+000  3.433001346835771E+000 
 3.476183187915878E+000  3.519908189691446E+000  3.564183184282963E+000  3.609015089748407E+000 
 3.654410911164227E+000  3.700377741719872E+000  3.746922763826138E+000  3.794053250237426E+000 
 3.841776565188121E+000  3.890100165543285E+000  3.939031601963786E+000  3.988578520086115E+000 
 4.038748661717035E+000  4.089549866043241E+000  4.140990070856274E+000  4.193077313792790E+000 
 4.245819733590466E+000  4.299225571359703E+000  4.353303171871304E+000  4.408060984860379E+000 
 4.463507566346607E+000  4.519651579971153E+000  4.576501798350373E+000  4.634067104446546E+000 
 4.692356492955875E+000  4.751379071713902E+000  4.811144063118642E+000  4.871660805571591E+000 
 4.932938754936877E+000  4.994987486018769E+000  5.057816694057732E+000  5.121436196245350E+000 
 5.185855933258273E+000  5.251085970811470E+000  5.317136501231029E+000  5.384017845046702E+000 
 5.451740452604534E+000  5.520314905699737E+000  5.589751919230119E+000  5.660062342870324E+000 
 5.731257162767089E+000  5.803347503255869E+000  5.876344628599036E+000  5.950259944745931E+000 
 6.025105001115096E+000  6.100891492398858E+000  6.177631260390667E+000  6.255336295835400E+000 
 6.334018740302932E+000  6.413690888085304E+000  6.494365188117694E+000  6.576054245923617E+000 
 6.658770825584551E+000  6.742527851734351E+000  6.827338411578770E+000  6.913215756940327E+000 
 7.000173306328952E+000  7.088224647038655E+000  7.177383537270556E+000  7.267663908282661E+000 
 7.359079866566614E+000  7.451645696051881E+000  7.545375860337648E+000  7.640285004952773E+000 
 7.736387959644208E+000  7.833699740694141E+000  7.932235553266343E+000  8.032010793782003E+000 
 8.133041052325435E+000  8.235342115080103E+000  8.338929966795185E+000  8.443820793283264E+000 
 8.550030983949380E+000  8.657577134351904E+000  8.766476048795655E+000  8.876744742957564E+000 
 8.988400446545437E+000  9.101460605990127E+000  9.215942887171561E+000  9.331865178179106E+000 
 9.449245592106564E+000  9.568102469882433E+000  9.688454383135674E+000  9.810320137097586E+000 
 9.933718773540178E+000  1.005866957375145E+001  1.018519206154813E+001  1.031330600632637E+001 
 1.044303142615068E+001  1.057438859088183E+001  1.070739802534408E+001  1.084208051253216E+001 
 1.097845709685870E+001  1.111654908744246E+001  1.125637806143795E+001  1.139796586740681E+001 
 1.154133462873179E+001  1.168650674707354E+001  1.183350490587089E+001  1.198235207388525E+001 
 1.213307150878944E+001  1.228568676080180E+001  1.244022167636596E+001  1.259670040187687E+001 
 1.275514738745377E+001  1.291558739076051E+001  1.307804548087402E+001  1.324254704220141E+001 
 1.340911777844630E+001  1.357778371662515E+001  1.374857121113394E+001  1.392150694786615E+001 
 1.409661794838249E+001  1.427393157413304E+001  1.445347553073261E+001  1.463527787228968E+001 
 1.481936700579000E+001  1.500577169553520E+001  1.519452106763731E+001  1.538564461456973E+001 
 1.557917219977552E+001  1.577513406233360E+001  1.597356082168367E+001  1.617448348241059E+001 
 1.637793343908888E+001  1.658394248118820E+001  1.679254279804050E+001  1.700376698386968E+001 
 1.721764804288451E+001  1.743421939443564E+001  1.765351487823733E+001  1.787556875965512E+001 
 1.810041573505972E+001  1.832809093724849E+001  1.855862994093501E+001  1.879206876830764E+001 
 1.902844389465806E+001  1.926779225408071E+001  1.951015124524366E+001  1.975555873723241E+001 
 2.000405307546684E+001  2.025567308769288E+001  2.051045809004937E+001  2.076844789321125E+001 