<PP_INFO>
Generated using BHS code
Author: BHS    Generation date: 1982
Info: See Bachelet-Hamann-Schlueter paper: PRB26, 4199 (1982)
    1        The Pseudo was generated with a Scalar-Relativistic Calculation
  0.00000000000E+00    Local Potential cutoff radius
nl pn  l   occ               Rcut            Rcut US             E pseu
6S  0  0  2.00      0.00000000000      0.00000000000      0.00000000000
6P  0  1  0.00      0.00000000000      0.00000000000      0.00000000000
5D  0  2  4.00      0.00000000000      0.00000000000      0.00000000000
</PP_INFO>


<PP_HEADER>
   0                   Version Number
  W                    Element
   NC                  Norm - Conserving pseudopotential
    F                  Nonlinear Core Correction
 SLA  PZ   NOGX NOGC   PZ   Exchange-Correlation functional
    6.00000000000      Z valence
    0.00000000000      Total energy
  0.0000000  0.0000000 Suggested cutoff for wfc and rho
    2                  Max angular momentum component
  351                  Number of points in mesh
    3    3             Number of Wavefunctions, Number of Projectors
 Wavefunctions         nl  l   occ
                       6S  0  2.00
                       6P  1  0.00
                       5D  2  4.00
</PP_HEADER>


<PP_MESH>
  <PP_R>
  3.34966510360E-05  3.49509435257E-05  3.64683756602E-05  3.80516887137E-05
  3.97037429760E-05  4.14275229193E-05  4.32261425898E-05  4.51028512333E-05
  4.70610391650E-05  4.91042438944E-05  5.12361565155E-05  5.34606283752E-05
  5.57816780305E-05  5.82034985085E-05  6.07304648809E-05  6.33671421677E-05
  6.61182935843E-05  6.89888891459E-05  7.19841146462E-05  7.51093810257E-05
  7.83703341465E-05  8.17728649918E-05  8.53231203082E-05  8.90275137094E-05
  9.28927372635E-05  9.69257735812E-05  1.01133908431E-04  1.05524743901E-04
  1.10106212131E-04  1.14886589644E-04  1.19874512296E-04  1.25078990880E-04
  1.30509427399E-04  1.36175632056E-04  1.42087840975E-04  1.48256734688E-04
  1.54693457439E-04  1.61409637308E-04  1.68417407221E-04  1.75729426867E-04
  1.83358905570E-04  1.91319626151E-04  1.99625969826E-04  2.08292942185E-04
  2.17336200305E-04  2.26772081030E-04  2.36617630484E-04  2.46890634868E-04
  2.57609652589E-04  2.68794047789E-04  2.80464025320E-04  2.92640667254E-04
  3.05345970961E-04  3.18602888850E-04  3.32435369833E-04  3.46868402590E-04
  3.61928060711E-04  3.77641549798E-04  3.94037256613E-04  4.11144800360E-04
  4.28995086190E-04  4.47620361036E-04  4.67054271865E-04  4.87331926462E-04
  5.08489956854E-04  5.30566585486E-04  5.53601694271E-04  5.77636896638E-04
  6.02715612706E-04  6.28883147725E-04  6.56186773919E-04  6.84675815887E-04
  7.14401739707E-04  7.45418245912E-04  7.77781366499E-04  8.11549566153E-04
  8.46783847867E-04  8.83547863142E-04  9.21908026977E-04  9.61933637848E-04
  1.00369700290E-03  1.04727356856E-03  1.09274205685E-03  1.14018460759E-03
  1.18968692679E-03  1.24133844147E-03  1.29523246122E-03  1.35146634678E-03
  1.41014168588E-03  1.47136447680E-03  1.53524531988E-03  1.60189961723E-03
  1.67144778132E-03  1.74401545242E-03  1.81973372561E-03  1.89873938763E-03
  1.98117516392E-03  2.06718997653E-03  2.15693921308E-03  2.25058500755E-03
  2.34829653311E-03  2.45025030778E-03  2.55663051327E-03  2.66762932776E-03
  2.78344727304E-03  2.90429357676E-03  3.03038655041E-03  3.16195398372E-03
  3.29923355613E-03  3.44247326619E-03  3.59193187958E-03  3.74787939655E-03
  3.91059753972E-03  4.08038026296E-03  4.25753428248E-03  4.44237963090E-03
  4.63525023539E-03  4.83649452091E-03  5.04647603968E-03  5.26557412791E-03
  5.49418459109E-03  5.73272041902E-03  5.98161253191E-03  6.24131055880E-03
  6.51228364987E-03  6.79502132393E-03  7.09003435279E-03  7.39785568394E-03
  7.71904140336E-03  8.05417174008E-03  8.40385211439E-03  8.76871423155E-03
  9.14941722295E-03  9.54664883689E-03  9.96112668097E-03  1.03935995185E-02
  1.08448486211E-02  1.13156891802E-02  1.18069717796E-02  1.23195839320E-02
  1.28544516824E-02  1.34125412813E-02  1.39948609297E-02  1.46024626008E-02
  1.52364439403E-02  1.58979502493E-02  1.65881765536E-02  1.73083697619E-02
  1.80598309193E-02  1.88439175566E-02  1.96620461435E-02  2.05156946473E-02
  2.14064052026E-02  2.23357868977E-02  2.33055186808E-02  2.43173523936E-02
  2.53731159360E-02  2.64747165679E-02  2.76241443548E-02  2.88234757634E-02
  3.00748774121E-02  3.13806099852E-02  3.27430323174E-02  3.41646056543E-02
  3.56478980994E-02  3.71955892529E-02  3.88104750527E-02  4.04954728255E-02
  4.22536265566E-02  4.40881123891E-02  4.60022443620E-02  4.79994803966E-02
  5.00834285434E-02  5.22578535004E-02  5.45266834139E-02  5.68940169749E-02
  5.93641308232E-02  6.19414872736E-02  6.46307423770E-02  6.74367543315E-02
  7.03645922592E-02  7.34195453634E-02  7.66071324839E-02  7.99331120664E-02
  8.34034925660E-02  8.70245433010E-02  9.08028057789E-02  9.47451055134E-02
  9.88585643555E-02  1.03150613359E-01  1.07629006203E-01  1.12301833204E-01
  1.17177535925E-01  1.22264922431E-01  1.27573183195E-01  1.33111907709E-01
  1.38891101798E-01  1.44921205703E-01  1.51213112940E-01  1.57778189976E-01
  1.64628296766E-01  1.71775808179E-01  1.79233636351E-01  1.87015254011E-01
  1.95134718822E-01  2.03606698774E-01  2.12446498687E-01  2.21670087850E-01
  2.31294128880E-01  2.41336007819E-01  2.51813865539E-01  2.62746630521E-01
  2.74154053044E-01  2.86056740866E-01  2.98476196453E-01  3.11434855825E-01
  3.24956129082E-01  3.39064442701E-01  3.53785283660E-01  3.69145245479E-01
  3.85172076267E-01  4.01894728844E-01  4.19343413048E-01  4.37549650308E-01
  4.56546330593E-01  4.76367771819E-01  4.97049781855E-01  5.18629723204E-01
  5.41146580504E-01  5.64641030949E-01  5.89155517780E-01  6.14734326953E-01
  6.41423667147E-01  6.69271753239E-01  6.98328893407E-01  7.28647580010E-01
  7.60282584421E-01  7.93291055966E-01  8.27732625172E-01  8.63669511489E-01
  9.01166635688E-01  9.40291737145E-01  9.81115496213E-01  1.02371166191E+00
  1.06815718513E+00  1.11453235769E+00  1.16292095737E+00  1.21341039921E+00
  1.26609189351E+00  1.32106061053E+00  1.37841585247E+00  1.43826123283E+00
  1.50070486359E+00  1.56585955055E+00  1.63384299707E+00  1.70477801673E+00
  1.77879275521E+00  1.85602092175E+00  1.93660203072E+00  2.02068165366E+00
  2.10841168225E+00  2.19995060270E+00  2.29546378209E+00  2.39512376706E+00
  2.49911059555E+00  2.60761212205E+00  2.72082435694E+00  2.83895182061E+00
  2.96220791289E+00  3.09081529863E+00  3.22500630987E+00  3.36502336563E+00
  3.51111940977E+00  3.66355836800E+00  3.82261562463E+00  3.98857852009E+00
  4.16174686997E+00  4.34243350668E+00  4.53096484461E+00  4.72768146973E+00
  4.93293875494E+00  5.14710750201E+00  5.37057461148E+00  5.60374378157E+00
  5.84703623749E+00  6.10089149240E+00  6.36576814136E+00  6.64214468985E+00
  6.93052041815E+00  7.23141628332E+00  7.54537586034E+00  7.87296632405E+00
  8.21477947380E+00  8.57143280254E+00  8.94357061229E+00  9.33186517818E+00
  9.73701796283E+00  1.01597608836E+01  1.06008576349E+01  1.10611050676E+01
  1.15413346287E+01  1.20424138636E+01  1.25652479828E+01  1.31107814975E+01
  1.36799999261E+01  1.42739315741E+01  1.48936493920E+01  1.55402729136E+01
  1.62149702785E+01  1.69189603422E+01  1.76535148782E+01  1.84199608754E+01
  1.92196829352E+01  2.00541257729E+01  2.09247968280E+01  2.18332689867E+01
  2.27811834239E+01  2.37702525677E+01  2.48022631932E+01  2.58790796501E+01
  2.70026472311E+01  2.81749956856E+01  2.93982428866E+01  3.06745986570E+01
  3.20063687616E+01  3.33959590720E+01  3.48458799138E+01  3.63587506005E+01
  3.79373041662E+01  3.95843923026E+01  4.13029905103E+01  4.30962034747E+01
  4.49672706742E+01  4.69195722328E+01  4.89566350259E+01  5.10821390520E+01
  5.32999240808E+01  5.56139965894E+01  5.80285370005E+01  6.05479072342E+01
  6.31766585880E+01  6.59195399588E+01  6.87815064217E+01  7.17677281820E+01
  7.48835999146E+01  7.81347505099E+01  8.15270532428E+01  8.50666363824E+01
  8.87598942631E+01  9.26134988361E+01  9.66344117225E+01
  </PP_R>
  <PP_RAB>
  1.42360766903E-06  1.48541509984E-06  1.54990596556E-06  1.61719677033E-06
  1.68740907648E-06  1.76066972407E-06  1.83711106007E-06  1.91687117741E-06
  2.00009416451E-06  2.08693036551E-06  2.17753665191E-06  2.27207670594E-06
  2.37072131630E-06  2.47364868661E-06  2.58104475744E-06  2.69310354213E-06
  2.81002747733E-06  2.93202778870E-06  3.05932487246E-06  3.19214869359E-06
  3.33073920123E-06  3.47534676215E-06  3.62623261310E-06  3.78366933265E-06
  3.94794133370E-06  4.11934537720E-06  4.29819110832E-06  4.48480161578E-06
  4.67951401556E-06  4.88268005986E-06  5.09466677259E-06  5.31585711240E-06
  5.54665066446E-06  5.78746436240E-06  6.03873324142E-06  6.30091122425E-06
  6.57447194117E-06  6.85990958559E-06  7.15773980688E-06  7.46850064184E-06
  7.79275348674E-06  8.13108411142E-06  8.48410371758E-06  8.85245004287E-06
  9.23678851297E-06  9.63781344376E-06  1.00562492956E-05  1.04928519819E-05
  1.09484102350E-05  1.14237470310E-05  1.19197210761E-05  1.24372283583E-05
  1.29772037658E-05  1.35406227761E-05  1.41285032179E-05  1.47419071101E-05
  1.53819425802E-05  1.60497658664E-05  1.67465834061E-05  1.74736540153E-05
  1.82322911631E-05  1.90238653440E-05  1.98498065543E-05  2.07116068746E-05
  2.16108231663E-05  2.25490798832E-05  2.35280720065E-05  2.45495681071E-05
  2.56154135400E-05  2.67275337783E-05  2.78879378916E-05  2.90987221752E-05
  3.03620739376E-05  3.16802754513E-05  3.30557080762E-05  3.44908565615E-05
  3.59883135343E-05  3.75507841835E-05  3.91810911465E-05  4.08821796085E-05
  4.26571226231E-05  4.45091266636E-05  4.64415374160E-05  4.84578458225E-05
  5.05616943885E-05  5.27568837624E-05  5.50473796020E-05  5.74373197380E-05
  5.99310216497E-05  6.25329902642E-05  6.52479260947E-05  6.80807337323E-05
  7.10365307060E-05  7.41206567277E-05  7.73386833386E-05  8.06964239743E-05
  8.41999444668E-05  8.78555740024E-05  9.16699165560E-05  9.56498628210E-05
  9.98026026574E-05  1.04135638081E-04  1.08656796814E-04  1.13374246430E-04
  1.18296509104E-04  1.23432477012E-04  1.28791428393E-04  1.34383044308E-04
  1.40217426135E-04  1.46305113813E-04  1.52657104882E-04  1.59284874354E-04
  1.66200395438E-04  1.73416161176E-04  1.80945207005E-04  1.88801134313E-04
  1.96998135004E-04  2.05551017139E-04  2.14475231687E-04  2.23786900436E-04
  2.33502845121E-04  2.43640617808E-04  2.54218532606E-04  2.65255698749E-04
  2.76772055119E-04  2.88788406267E-04  3.01326459994E-04  3.14408866568E-04
  3.28059259643E-04  3.42302298953E-04  3.57163714862E-04  3.72670354841E-04
  3.88850231975E-04  4.05732575568E-04  4.23347883941E-04  4.41727979536E-04
  4.60906066397E-04  4.80916790159E-04  5.01796300632E-04  5.23582317108E-04
  5.46314196504E-04  5.70033004457E-04  5.94781589513E-04  6.20604660534E-04
  6.47548867461E-04  6.75662885596E-04  7.04997503526E-04  7.35605714883E-04
  7.67542814069E-04  8.00866496154E-04  8.35636961098E-04  8.71917022509E-04
  9.09772221112E-04  9.49270943151E-04  9.90484543932E-04  1.03348747673E-03
  1.07835742728E-03  1.12517545413E-03  1.17402613508E-03  1.22499771995E-03
  1.27818229001E-03  1.33367592437E-03  1.39157887349E-03  1.45199574031E-03
  1.51503566922E-03  1.58081254325E-03  1.64944518974E-03  1.72105759508E-03
  1.79577912865E-03  1.87374477654E-03  1.95509538539E-03  2.03997791685E-03
  2.12854571309E-03  2.22095877377E-03  2.31738404509E-03  2.41799572143E-03
  2.52297555999E-03  2.63251320913E-03  2.74680655102E-03  2.86606205909E-03
  2.99049517102E-03  3.12033067795E-03  3.25580313056E-03  3.39715726282E-03
  3.54464843405E-03  3.69854309029E-03  3.85911924560E-03  4.02666698432E-03
  4.20148898511E-03  4.38390106774E-03  4.57423276363E-03  4.77282791117E-03
  4.98004527682E-03  5.19625920330E-03  5.42186028580E-03  5.65725607762E-03
  5.90287182641E-03  6.15915124239E-03  6.42655729995E-03  6.70557307397E-03
  6.99670261257E-03  7.30047184762E-03  7.61742954491E-03  7.94814829546E-03
  8.29322554992E-03  8.65328469792E-03  9.02897619418E-03  9.42097873362E-03
  9.83000047741E-03  1.02567803323E-02  1.07020892854E-02  1.11667317971E-02
  1.16515472544E-02  1.21574114868E-02  1.26852383493E-02  1.32359813726E-02
  1.38106354860E-02  1.44102388148E-02  1.50358745555E-02  1.56886729329E-02
  1.63698132414E-02  1.70805259759E-02  1.78220950545E-02  1.85958601381E-02
  1.94032190502E-02  2.02456303023E-02  2.11246157288E-02  2.20417632362E-02
  2.29987296714E-02  2.39972438154E-02  2.50391095057E-02  2.61262088955E-02
  2.72605058537E-02  2.84440495127E-02  2.96789779698E-02  3.09675221504E-02
  3.23120098379E-02  3.37148698785E-02  3.51786365698E-02  3.67059542383E-02
  3.82995820167E-02  3.99623988287E-02  4.16974085890E-02  4.35077456310E-02
  4.53966803680E-02  4.73676252020E-02  4.94241406881E-02  5.15699419664E-02
  5.38089054740E-02  5.61450759475E-02  5.85826737299E-02  6.11261023951E-02
  6.37799567026E-02  6.65490308983E-02  6.94383273754E-02  7.24530657112E-02
  7.55986920966E-02  7.88808891744E-02  8.23055863056E-02  8.58789702806E-02
  8.96074964956E-02  9.34979006149E-02  9.75572107388E-02  1.01792760100E-01
  1.06212200311E-01  1.10823515187E-01  1.15635035170E-01  1.20655452376E-01
  1.25893836298E-01  1.31359650192E-01  1.37062768170E-01  1.43013493039E-01
  1.49222574915E-01  1.55701230640E-01  1.62461164047E-01  1.69514587104E-01
  1.76874241974E-01  1.84553424034E-01  1.92566005896E-01  2.00926462464E-01
  2.09649897085E-01  2.18752068835E-01  2.28249420988E-01  2.38159110717E-01
  2.48499040093E-01  2.59287888427E-01  2.70545146008E-01  2.82291149319E-01
  2.94547117771E-01  3.07335192041E-01  3.20678474064E-01  3.34601068772E-01
  3.49128127637E-01  3.64285894108E-01  3.80101751022E-01  3.96604270073E-01
  4.13823263420E-01  4.31789837554E-01  4.50536449482E-01  4.70096965371E-01
  4.90506721721E-01  5.11802589203E-01  5.34023039268E-01  5.57208213646E-01
  5.81399996861E-01  6.06642091901E-01  6.32980099161E-01  6.60461598830E-01
  6.89136236837E-01  7.19055814545E-01  7.50274382325E-01  7.82848337204E-01
  8.16836524744E-01  8.52300345350E-01  8.89303865191E-01  9.27913931936E-01
  9.68200295515E-01  1.01023573413E+00  1.05409618571E+00  1.09986088513E+00
  1.14761250732E+00  1.19743731664E+00  1.24942532268E+00  1.30367044292E+00
  1.36027067237E+00  1.41932826056E+00  1.48094989633E+00  1.54524690052E+00
  1.61233542706E+00  1.68233667286E+00  1.75537709669E+00  1.83158864767E+00
  1.91110900366E+00  1.99408181989E+00  2.08065698860E+00  2.17099090971E+00
  2.26524677343E+00  2.36359485505E+00  2.46621282252E+00  2.57328605745E+00
  2.68500798999E+00  2.80158044825E+00  2.92321402292E+00  3.05012844774E+00
  3.18255299637E+00  3.32072689667E+00  3.46489976282E+00  3.61533204625E+00
  3.77229550618E+00  3.93607370053E+00  4.10696249821E+00
  </PP_RAB>
</PP_MESH>


<PP_LOCAL>
 -8.29716822760E+00 -8.29716822775E+00 -8.29716822790E+00 -8.29716822808E+00
 -8.29716822827E+00 -8.29716822847E+00 -8.29716822869E+00 -8.29716822894E+00
 -8.29716822920E+00 -8.29716822948E+00 -8.29716822980E+00 -8.29716823015E+00
 -8.29716823051E+00 -8.29716823092E+00 -8.29716823136E+00 -8.29716823184E+00
 -8.29716823237E+00 -8.29716823293E+00 -8.29716823355E+00 -8.29716823422E+00
 -8.29716823495E+00 -8.29716823575E+00 -8.29716823662E+00 -8.29716823756E+00
 -8.29716823860E+00 -8.29716823972E+00 -8.29716824094E+00 -8.29716824228E+00
 -8.29716824372E+00 -8.29716824530E+00 -8.29716824701E+00 -8.29716824888E+00
 -8.29716825091E+00 -8.29716825312E+00 -8.29716825553E+00 -8.29716825816E+00
 -8.29716826101E+00 -8.29716826413E+00 -8.29716826752E+00 -8.29716827121E+00
 -8.29716827522E+00 -8.29716827959E+00 -8.29716828435E+00 -8.29716828953E+00
 -8.29716829517E+00 -8.29716830130E+00 -8.29716830800E+00 -8.29716831527E+00
 -8.29716832320E+00 -8.29716833182E+00 -8.29716834121E+00 -8.29716835143E+00
 -8.29716836257E+00 -8.29716837469E+00 -8.29716838789E+00 -8.29716840226E+00
 -8.29716841790E+00 -8.29716843492E+00 -8.29716845346E+00 -8.29716847365E+00
 -8.29716849562E+00 -8.29716851954E+00 -8.29716854559E+00 -8.29716857394E+00
 -8.29716860482E+00 -8.29716863842E+00 -8.29716867502E+00 -8.29716871486E+00
 -8.29716875824E+00 -8.29716880546E+00 -8.29716885688E+00 -8.29716891285E+00
 -8.29716897379E+00 -8.29716904014E+00 -8.29716911237E+00 -8.29716919100E+00
 -8.29716927662E+00 -8.29716936983E+00 -8.29716947131E+00 -8.29716958180E+00
 -8.29716970208E+00 -8.29716983304E+00 -8.29716997561E+00 -8.29717013084E+00
 -8.29717029984E+00 -8.29717048382E+00 -8.29717068413E+00 -8.29717090221E+00
 -8.29717113965E+00 -8.29717139814E+00 -8.29717167957E+00 -8.29717198597E+00
 -8.29717231954E+00 -8.29717268271E+00 -8.29717307809E+00 -8.29717350857E+00
 -8.29717397722E+00 -8.29717448745E+00 -8.29717504295E+00 -8.29717564774E+00
 -8.29717630617E+00 -8.29717702301E+00 -8.29717780346E+00 -8.29717865314E+00
 -8.29717957821E+00 -8.29718058533E+00 -8.29718168183E+00 -8.29718287558E+00
 -8.29718417524E+00 -8.29718559020E+00 -8.29718713068E+00 -8.29718880784E+00
 -8.29719063378E+00 -8.29719262171E+00 -8.29719478599E+00 -8.29719714228E+00
 -8.29719970761E+00 -8.29720250052E+00 -8.29720554119E+00 -8.29720885162E+00
 -8.29721245572E+00 -8.29721637955E+00 -8.29722065147E+00 -8.29722530236E+00
 -8.29723036584E+00 -8.29723587850E+00 -8.29724188019E+00 -8.29724841428E+00
 -8.29725552801E+00 -8.29726327279E+00 -8.29727170458E+00 -8.29728088434E+00
 -8.29729087837E+00 -8.29730175893E+00 -8.29731360463E+00 -8.29732650106E+00
 -8.29734054143E+00 -8.29735582716E+00 -8.29737246870E+00 -8.29739058629E+00
 -8.29741031079E+00 -8.29743178471E+00 -8.29745516314E+00 -8.29748061495E+00
 -8.29750832396E+00 -8.29753849026E+00 -8.29757133167E+00 -8.29760708533E+00
 -8.29764600932E+00 -8.29768838464E+00 -8.29773451708E+00 -8.29778473959E+00
 -8.29783941449E+00 -8.29789893623E+00 -8.29796373407E+00 -8.29803427531E+00
 -8.29811106844E+00 -8.29819466701E+00 -8.29828567335E+00 -8.29838474305E+00
 -8.29849258950E+00 -8.29860998908E+00 -8.29873778657E+00 -8.29887690121E+00
 -8.29902833321E+00 -8.29919317076E+00 -8.29937259783E+00 -8.29956790236E+00
 -8.29978048538E+00 -8.30001187084E+00 -8.30026371623E+00 -8.30053782411E+00
 -8.30083615462E+00 -8.30116083904E+00 -8.30151419448E+00 -8.30189873968E+00
 -8.30231721228E+00 -8.30277258733E+00 -8.30326809734E+00 -8.30380725398E+00
 -8.30439387134E+00 -8.30503209112E+00 -8.30572640976E+00 -8.30648170745E+00
 -8.30730327942E+00 -8.30819686950E+00 -8.30916870588E+00 -8.31022553953E+00
 -8.31137468500E+00 -8.31262406390E+00 -8.31398225106E+00 -8.31545852324E+00
 -8.31706291060E+00 -8.31880625072E+00 -8.32070024489E+00 -8.32275751684E+00
 -8.32499167319E+00 -8.32741736543E+00 -8.33005035276E+00 -8.33290756510E+00
 -8.33600716517E+00 -8.33936860862E+00 -8.34301270047E+00 -8.34696164610E+00
 -8.35123909445E+00 -8.35587017066E+00 -8.36088149441E+00 -8.36630118039E+00
 -8.37215881560E+00 -8.37848540772E+00 -8.38531329793E+00 -8.39267602998E+00
 -8.40060816639E+00 -8.40914504110E+00 -8.41832243656E+00 -8.42817617159E+00
 -8.43874158509E+00 -8.45005289916E+00 -8.46214244398E+00 -8.47503972638E+00
 -8.48877032389E+00 -8.50335458629E+00 -8.51880612957E+00 -8.53513011004E+00
 -8.55232127149E+00 -8.57036176636E+00 -8.58921876038E+00 -8.60884184197E+00
 -8.62916026977E+00 -8.65008010314E+00 -8.67148126875E+00 -8.69321461645E+00
 -8.71509900370E+00 -8.73691841033E+00 -8.75841901462E+00 -8.77930604397E+00
 -8.79924003686E+00 -8.81783190920E+00 -8.83463590677E+00 -8.84913916562E+00
 -8.86074624086E+00 -8.86875669178E+00 -8.87233377549E+00 -8.87046271443E+00
 -8.86189813916E+00 -8.84510247110E+00 -8.81818046219E+00 -8.77881995171E+00
 -8.72425488347E+00 -8.65127293508E+00 -8.55629514814E+00 -8.43555626144E+00
 -8.28540891610E+00 -8.10275940265E+00 -7.88561526836E+00 -7.63368701823E+00
 -7.34894327376E+00 -7.03598292292E+00 -6.70207565140E+00 -6.35675101294E+00
 -6.01089601003E+00 -5.67544584222E+00 -5.35989312638E+00 -5.07094808358E+00
 -4.81170114764E+00 -4.58153628053E+00 -4.37683136468E+00 -4.19223119556E+00
 -4.02209300148E+00 -3.86167218844E+00 -3.70775608874E+00 -3.55869655759E+00
 -3.41401631145E+00 -3.27386662743E+00 -3.13857222026E+00 -3.00837181615E+00
 -2.88333954839E+00 -2.76341083278E+00 -2.64843891290E+00 -2.53824140822E+00
 -2.43262689865E+00 -2.33140650962E+00 -2.23439778077E+00 -2.14142553036E+00
 -2.05232181101E+00 -1.96692565586E+00 -1.88508279496E+00 -1.80664537741E+00
 -1.73147170429E+00 -1.65942597271E+00 -1.59037803048E+00 -1.52420314099E+00
 -1.46078175784E+00 -1.39999930892E+00 -1.34174598940E+00 -1.28591656340E+00
 -1.23241017381E+00 -1.18113016019E+00 -1.13198388407E+00 -1.08488256162E+00
 -1.03974110326E+00 -9.96477959977E-01 -9.55014975944E-01 -9.15277247374E-01
 -8.77192987192E-01 -8.40693395346E-01 -8.05712534526E-01 -7.72187211041E-01
 -7.40056860659E-01 -7.09263439199E-01 -6.79751317671E-01 -6.51467181781E-01
 -6.24359935619E-01 -5.98380609350E-01 -5.73482270754E-01 -5.49619940436E-01
 -5.26750510574E-01 -5.04832667042E-01 -4.83826814777E-01 -4.63695006245E-01
 -4.44400872895E-01 -4.25909559452E-01 -4.08187660953E-01 -3.91203162401E-01
 -3.74925380926E-01 -3.59324910362E-01 -3.44373568115E-01 -3.30044344259E-01
 -3.16311352737E-01 -3.03149784599E-01 -2.90535863184E-01 -2.78446801168E-01
 -2.66860759394E-01 -2.55756807425E-01 -2.45114885728E-01 -2.34915769439E-01
 -2.25141033631E-01 -2.15773020029E-01 -2.06794805113E-01 -1.98190169539E-01
 -1.89943568846E-01 -1.82040105369E-01 -1.74465501329E-01 -1.67206073036E-01
 -1.60248706175E-01 -1.53580832110E-01 -1.47190405181E-01 -1.41065880941E-01
 -1.35196195305E-01 -1.29570744555E-01 -1.24179366192E-01
</PP_LOCAL>


<PP_NONLOCAL>
  <PP_BETA>
    1    0             Beta    L
   298
  1.88608436453E-05  1.96797072229E-05  2.05341225359E-05  2.14256336337E-05
  2.23558498198E-05  2.33264530053E-05  2.43391949507E-05  2.53959073765E-05
  2.64984973674E-05  2.76489574821E-05  2.88493657537E-05  3.01018921228E-05
  3.14087975188E-05  3.27724430503E-05  3.41952936817E-05  3.56799182330E-05
  3.72289994899E-05  3.88453360415E-05  4.05318477954E-05  4.22915805725E-05
  4.41277143788E-05  4.60435652439E-05  4.80425953307E-05  5.01284156922E-05
  5.23047936248E-05  5.45756618583E-05  5.69451222331E-05  5.94174548902E-05
  6.19971265431E-05  6.46887969116E-05  6.74973297504E-05  7.04277974446E-05
  7.34854947959E-05  7.66759454560E-05  8.00049120365E-05  8.34784108142E-05
  8.71027135688E-05  9.08843705607E-05  9.48302142061E-05  9.89473664307E-05
  1.03243269918E-04  1.07725681674E-04  1.12402707956E-04  1.17282795077E-04
  1.22374747792E-04  1.27687784438E-04  1.33231481792E-04  1.39015866979E-04
  1.45051389899E-04  1.51348950796E-04  1.57919918645E-04  1.64776186293E-04
  1.71930115316E-04  1.79394646305E-04  1.87183252915E-04  1.95310015391E-04
  2.03789611375E-04  2.12637352670E-04  2.21869231194E-04  2.31501918977E-04
  2.41552823308E-04  2.52040095927E-04  2.62982688164E-04  2.74400360131E-04
  2.86313745060E-04  2.98744367679E-04  3.11714680978E-04  3.25248102969E-04
  3.39369108592E-04  3.54103183763E-04  3.69476954041E-04  3.85518203004E-04
  4.02255899831E-04  4.19720272812E-04  4.37942892071E-04  4.56956669564E-04
  4.76795941787E-04  4.97496570875E-04  5.19095944598E-04  5.41633077453E-04
  5.65148684183E-04  5.89685253306E-04  6.15287111433E-04  6.42000505985E-04
  6.69873697085E-04  6.98957049464E-04  7.29303087587E-04  7.60966642698E-04
  7.94004926330E-04  8.28477603810E-04  8.64446978064E-04  9.01978007973E-04
  9.41138528925E-04  9.81999271173E-04  1.02463399766E-03  1.06911981649E-03
  1.11553705218E-03  1.16396961328E-03  1.21450499231E-03  1.26723444949E-03
  1.32225328844E-03  1.37966085610E-03  1.43956091022E-03  1.50206171125E-03
  1.56727611406E-03  1.63532193549E-03  1.70632222993E-03  1.78040519723E-03
  1.85770473397E-03  1.93836052516E-03  2.02251822779E-03  2.11032993014E-03
  2.20195442718E-03  2.29755722019E-03  2.39731097593E-03  2.50139607764E-03
  2.61000062449E-03  2.72332079866E-03  2.84156150802E-03  2.96493647728E-03
  3.09366852286E-03  3.22799056290E-03  3.36814524852E-03  3.51438606547E-03
  3.66697733271E-03  3.82619484410E-03  3.99232660187E-03  4.16567299832E-03
  4.34654754871E-03  4.53527725621E-03  4.73220352788E-03  4.93768263074E-03
  5.15208633116E-03  5.37580244185E-03  5.60923601150E-03  5.85280931900E-03
  6.10696352122E-03  6.37215855353E-03  6.64887477574E-03  6.93761342187E-03
  7.23889760024E-03  7.55327320003E-03  7.88131016380E-03  8.22360339046E-03
  8.58077354424E-03  8.95346887188E-03  9.34236582250E-03  9.74817058317E-03
  1.01716204270E-02  1.06134849651E-02  1.10745684050E-02  1.15557085871E-02
  1.20577833666E-02  1.25817059613E-02  1.31284322376E-02  1.36989606366E-02
  1.42943330077E-02  1.49156381892E-02  1.55640137362E-02  1.62406467159E-02
  1.69467799981E-02  1.76837111767E-02  1.84527951433E-02  1.92554503123E-02
  2.00931583844E-02  2.09674686736E-02  2.18800033136E-02  2.28324569125E-02
  2.38266025889E-02  2.48642988722E-02  2.59474873562E-02  2.70782031412E-02
  2.82585787654E-02  2.94908462094E-02  3.07773461432E-02  3.21205333795E-02
  3.35229812748E-02  3.49873914844E-02  3.65165998676E-02  3.81135840289E-02
  3.97814761340E-02  4.15235662872E-02  4.33433184544E-02  4.52443805353E-02
  4.72305931277E-02  4.93060088448E-02  5.14749010313E-02  5.37417856370E-02
  5.61114341640E-02  5.85888959130E-02  6.11795193324E-02  6.38889732541E-02
  6.67232742677E-02  6.96888154722E-02  7.27923982229E-02  7.60412666321E-02
  7.94431436241E-02  8.30062800809E-02  8.67394929522E-02  9.06522274685E-02
  9.47546082503E-02  9.90575033279E-02  1.03572602119E-01  1.08312482869E-01
  1.13290728473E-01  1.18521967896E-01  1.24022053081E-01  1.29808124859E-01
  1.35898756284E-01  1.42314125412E-01  1.49076124733E-01  1.56208602038E-01
  1.63737476861E-01  1.71691015286E-01  1.80100032868E-01  1.88998118066E-01
  1.98421965506E-01  2.08411587285E-01  2.19010692569E-01  2.30266938414E-01
  2.42232326627E-01  2.54963515482E-01  2.68522163808E-01  2.82975270236E-01
  2.98395491469E-01  3.14861400142E-01  3.32457669950E-01  3.51275191229E-01
  3.71411008036E-01  3.92968041137E-01  4.16054577683E-01  4.40783325625E-01
  4.67270015972E-01  4.95631273541E-01  5.25981702625E-01  5.58429690167E-01
  5.93071808523E-01  6.29985193055E-01  6.69217275932E-01  7.10772296749E-01
  7.54593300457E-01  8.00538988880E-01  8.48353528434E-01  8.97628145880E-01
  9.47753985886E-01  9.97864909375E-01  1.04677231250E+00  1.09289573861E+00
  1.13419826072E+00  1.16814218527E+00  1.19168871346E+00  1.20137421679E+00
  1.19350175916E+00  1.16448335677E+00  1.11135333838E+00  1.03243175917E+00
  9.28057132696E-01  8.01230249427E-01  6.57946566744E-01  5.06982354322E-01
  3.58979737242E-01  2.24865536288E-01  1.13897300064E-01  3.18557884570E-02
 -2.00326099374E-02 -4.50407913182E-02 -4.97388779413E-02 -4.20625746471E-02
 -2.93308415096E-02 -1.68503259330E-02 -7.43247953519E-03 -1.74483868182E-03
  8.72550482689E-04  1.55713591096E-03  1.33428422002E-03  8.68234030039E-04
  4.69512661164E-04  2.17559620634E-04  8.73497822698E-05  3.04576741590E-05
  9.19885064209E-06  2.39231170506E-06  5.31329621205E-07  9.97607176813E-08
  1.56485699015E-08  2.02356010538E-09  2.12541181371E-10  1.78384278763E-11
  1.17509312951E-12  5.95748187147E-14  2.26409145920E-15  6.00686766994E-17
  0.00000000000E+00  0.00000000000E+00  0.00000000000E+00  0.00000000000E+00
  0.00000000000E+00  0.00000000000E+00
  </PP_BETA>
  <PP_BETA>
    2    1             Beta    L
   298
  2.16253229301E-10  2.35438581075E-10  2.56326001456E-10  2.79066490872E-10
  3.03824452361E-10  3.30778866934E-10  3.60124612786E-10  3.92073809065E-10
  4.26857447339E-10  4.64726984471E-10  5.05956191632E-10  5.50843154145E-10
  5.99712341540E-10  6.52917063523E-10  7.10841925953E-10  7.73905742930E-10
  8.42564413794E-10  9.17314256228E-10  9.98695690246E-10  1.08729702738E-09
  1.18375882130E-09  1.28877846398E-09  1.40311509764E-09  1.52759536877E-09
  1.66311914706E-09  1.81066619156E-09  1.97130320292E-09  2.14619143685E-09
  2.33659526499E-09  2.54389112169E-09  2.76957771381E-09  3.01528651131E-09
  3.28279392182E-09  3.57403360567E-09  3.89111170289E-09  4.23631949907E-09
  4.61215331875E-09  5.02133017355E-09  5.46680776078E-09  5.95180726899E-09
  6.47983407833E-09  7.05470582891E-09  7.68057873480E-09  8.36197705575E-09
  9.10382748095E-09  9.91149210929E-09  1.07908109027E-08  1.17481399292E-08
  1.27904004827E-08  1.39251275003E-08  1.51605242964E-08  1.65055215057E-08
  1.79698430438E-08  1.95640752255E-08  2.12997425498E-08  2.31893936586E-08
  2.52466887002E-08  2.74865014271E-08  2.99250234012E-08  3.25798843355E-08
  3.54702777011E-08  3.86170961573E-08  4.20430925936E-08  4.57730338045E-08
  4.98338829349E-08  5.42549994668E-08  5.90683462250E-08  6.43087174331E-08
  7.00140018557E-08  7.62254389233E-08  8.29879415213E-08  9.03503907077E-08
  9.83660146419E-08  1.07092763999E-07  1.16593725983E-07  1.26937583954E-07
  1.38199122657E-07  1.50459751011E-07  1.63808109089E-07  1.78340696159E-07
  1.94162572404E-07  2.11388123804E-07  2.30141876128E-07  2.50559410690E-07
  2.72788332726E-07  2.96989348554E-07  3.23337409386E-07  3.52022991996E-07
  3.83253516211E-07  4.17254678227E-07  4.54272394404E-07  4.94574194247E-07
  5.38451465967E-07  5.86221421391E-07  6.38229411730E-07  6.94851418827E-07
  7.56496827082E-07  8.23611230543E-07  8.96679906629E-07  9.76231044329E-07
  1.06283981449E-06  1.15713233497E-06  1.25979026734E-06  1.37155586988E-06
  1.49323708572E-06  1.62571364864E-06  1.76994329431E-06  1.92696881371E-06
  2.09792542268E-06  2.28404907894E-06  2.48668546616E-06  2.70729950472E-06
  2.94748630134E-06  3.20898234501E-06  3.49367824730E-06  3.80363229040E-06
  4.14108548484E-06  4.50847785626E-06  4.90846536510E-06  5.34394016096E-06
  5.81805129491E-06  6.33422613577E-06  6.89619705184E-06  7.50802774482E-06
  8.17414169261E-06  8.89935621007E-06  9.68891440997E-06  1.05485262922E-05