<PP_INFO>
Generated using Vanderbilt code, version   7  3  4                              
Author: unknown    Generation date:    5   11 2002                              
Automatically converted from original format                                    
    1        The Pseudo was generated with a Scalar-Relativistic Calculation
  3.00000000000E+00    Local Potential cutoff radius
nl pn  l   occ               Rcut            Rcut US             E pseu
5S  5  0  2.00     10.00000000000      2.90000000000     -1.45631533800
5P  5  1  6.00     10.00000000000      2.90000000000     -0.60876011600
</PP_INFO>


<PP_HEADER>
   0                   Version Number
  Xe                   Element
   US                  Ultrasoft pseudopotential
    T                  Nonlinear Core Correction
 SLA  PW   GGX  GGC    PW91 Exchange-Correlation functional
    8.00000000000      Z valence
  -86.94494798740      Total energy
  0.0000000  0.0000000 Suggested cutoff for wfc and rho
    1                  Max angular momentum component
  893                  Number of points in mesh
    2    4             Number of Wavefunctions, Number of Projectors
 Wavefunctions         nl  l   occ
                       5S  0  2.00
                       5P  1  6.00
</PP_HEADER>


<PP_MESH>
  <PP_R>
  0.00000000000E+00  1.05963909931E-09  2.14610309013E-09  3.26007104782E-09
  4.40223923862E-09  5.57332155483E-09  6.77404996102E-09  8.00517495153E-09
  9.26746601956E-09  1.05617121381E-08  1.18887222531E-08  1.32493257892E-08
  1.46443731677E-08  1.60747363387E-08  1.75413093259E-08  1.90450087849E-08
  2.05867745770E-08  2.21675703559E-08  2.37883841705E-08  2.54502290822E-08
  2.71541437981E-08  2.89011933204E-08  3.06924696119E-08  3.25290922786E-08
  3.44122092695E-08  3.63429975940E-08  3.83226640576E-08  4.03524460164E-08
  4.24336121500E-08  4.45674632552E-08  4.67553330583E-08  4.89985890491E-08
  5.12986333357E-08  5.36569035207E-08  5.60748735996E-08  5.85540548825E-08
  6.10959969383E-08  6.37022885637E-08  6.63745587757E-08  6.91144778301E-08
  7.19237582657E-08  7.48041559741E-08  7.77574712976E-08  8.07855501545E-08
  8.38902851926E-08  8.70736169723E-08  9.03375351798E-08  9.36840798701E-08
  9.71153427425E-08  1.00633468448E-07  1.04240655930E-07  1.07939159798E-07
  1.11731291737E-07  1.15619421953E-07  1.19605980654E-07  1.23693459569E-07
  1.27884413505E-07  1.32181461945E-07  1.36587290685E-07  1.41104653510E-07
  1.45736373919E-07  1.50485346889E-07  1.55354540682E-07  1.60346998703E-07
  1.65465841400E-07  1.70714268217E-07  1.76095559592E-07  1.81613079006E-07
  1.87270275089E-07  1.93070683773E-07  1.99017930502E-07  2.05115732498E-07
  2.11367901087E-07  2.17778344077E-07  2.24351068205E-07  2.31090181635E-07
  2.37999896535E-07  2.45084531700E-07  2.52348515258E-07  2.59796387435E-07
  2.67432803394E-07  2.75262536143E-07  2.83290479521E-07  2.91521651253E-07
  2.99961196089E-07  3.08614389020E-07  3.17486638573E-07  3.26583490192E-07
  3.35910629707E-07  3.45473886883E-07  3.55279239067E-07  3.65332814923E-07
  3.75640898264E-07  3.86209931976E-07  3.97046522051E-07  4.08157441710E-07
  4.19549635639E-07  4.31230224331E-07  4.43206508533E-07  4.55485973813E-07
  4.68076295236E-07  4.80985342164E-07  4.94221183171E-07  5.07792091088E-07
  5.21706548174E-07  5.35973251419E-07  5.50601117976E-07  5.65599290738E-07
  5.80977144051E-07  5.96744289574E-07  6.12910582286E-07  6.29486126646E-07
  6.46481282910E-07  6.63906673603E-07  6.81773190162E-07  7.00091999740E-07
  7.18874552191E-07  7.38132587221E-07  7.57878141729E-07  7.78123557329E-07
  7.98881488065E-07  8.20164908319E-07  8.41987120923E-07  8.64361765468E-07
  8.87302826837E-07  9.10824643939E-07  9.34941918677E-07  9.59669725130E-07
  9.85023518985E-07  1.01101914719E-06  1.03767285785E-06  1.06500131041E-06
  1.09302158604E-06  1.12175119833E-06  1.15120810421E-06  1.18141071522E-06
  1.21237790896E-06  1.24412904095E-06  1.27668395667E-06  1.31006300400E-06
  1.34428704594E-06  1.37937747363E-06  1.41535621972E-06  1.45224577211E-06
  1.49006918796E-06  1.52885010814E-06  1.56861277199E-06  1.60938203247E-06
  1.65118337169E-06  1.69404291685E-06  1.73798745656E-06  1.78304445760E-06
  1.82924208204E-06  1.87660920491E-06  1.92517543221E-06  1.97497111941E-06
  2.02602739043E-06  2.07837615710E-06  2.13205013911E-06  2.18708288445E-06
  2.24350879036E-06  2.30136312489E-06  2.36068204887E-06  2.42150263855E-06
  2.48386290880E-06  2.54780183680E-06  2.61335938647E-06  2.68057653341E-06
  2.74949529053E-06  2.82015873429E-06  2.89261103164E-06  2.96689746764E-06
  3.04306447372E-06  3.12115965673E-06  3.20123182872E-06  3.28333103739E-06
  3.36750859742E-06  3.45381712253E-06  3.54231055835E-06  3.63304421617E-06
  3.72607480748E-06  3.82146047941E-06  3.91926085112E-06  4.01953705104E-06
  4.12235175503E-06  4.22776922566E-06  4.33585535225E-06  4.44667769217E-06
  4.56030551298E-06  4.67680983577E-06  4.79626347953E-06  4.91874110668E-06
  5.04431926973E-06  5.17307645910E-06  5.30509315224E-06  5.44045186389E-06
  5.57923719763E-06  5.72153589882E-06  5.86743690878E-06  6.01703142040E-06
  6.17041293510E-06  6.32767732134E-06  6.48892287447E-06  6.65425037821E-06
  6.82376316763E-06  6.99756719375E-06  7.17577108974E-06  7.35848623883E-06
  7.54582684394E-06  7.73790999905E-06  7.93485576238E-06  8.13678723145E-06
  8.34383062000E-06  8.55611533688E-06  8.77377406695E-06  8.99694285401E-06
  9.22576118581E-06  9.46037208126E-06  9.70092217980E-06  9.94756183308E-06
  1.02004451989E-05  1.04597303376E-05  1.07255793109E-05  1.09981582829E-05
  1.12776376245E-05  1.15641920193E-05  1.18580005731E-05  1.21592469259E-05
  1.24681193664E-05  1.27848109500E-05  1.31095196192E-05  1.34424483275E-05
  1.37838051661E-05  1.41338034943E-05  1.44926620723E-05  1.48606051985E-05
  1.52378628492E-05  1.56246708229E-05  1.60212708870E-05  1.64279109296E-05
  1.68448451138E-05  1.72723340372E-05  1.77106448942E-05  1.81600516434E-05
  1.86208351785E-05  1.90932835045E-05  1.95776919167E-05  2.00743631862E-05
  2.05836077488E-05  2.11057438989E-05  2.16410979886E-05  2.21900046316E-05
  2.27528069123E-05  2.33298566007E-05  2.39215143715E-05  2.45281500300E-05
  2.51501427434E-05  2.57878812772E-05  2.64417642389E-05  2.71122003266E-05
  2.77996085846E-05  2.85044186656E-05  2.92270710987E-05  2.99680175652E-05
  3.07277211809E-05  3.15066567851E-05  3.23053112380E-05  3.31241837247E-05
  3.39637860671E-05  3.48246430439E-05  3.57072927189E-05  3.66122867768E-05
  3.75401908683E-05  3.84915849638E-05  3.94670637154E-05  4.04672368292E-05
  4.14927294459E-05  4.25441825318E-05  4.36222532793E-05  4.47276155177E-05
  4.58609601344E-05  4.70229955067E-05  4.82144479445E-05  4.94360621443E-05
  5.06886016548E-05  5.19728493540E-05  5.32896079385E-05  5.46397004253E-05
  5.60239706661E-05  5.74432838749E-05  5.88985271686E-05  6.03906101217E-05
  6.19204653345E-05  6.34890490165E-05  6.50973415834E-05  6.67463482705E-05
  6.84370997607E-05  7.01706528285E-05  7.19480910013E-05  7.37705252356E-05
  7.56390946122E-05  7.75549670477E-05  7.95193400249E-05  8.15334413408E-05
  8.35985298742E-05  8.57158963727E-05  8.78868642593E-05  9.01127904597E-05
  9.23950662501E-05  9.47351181271E-05  9.71344086995E-05  9.95944376019E-05
  1.02116742432E-04  1.04702899714E-04  1.07354525878E-04  1.10073278279E-04
  1.12860856224E-04  1.15719002041E-04  1.18649502164E-04  1.21654188250E-04
  1.24734938327E-04  1.27893677964E-04  1.31132381475E-04  1.34453073156E-04
  1.37857828547E-04  1.41348775731E-04  1.44928096663E-04  1.48598028537E-04
  1.52360865178E-04  1.56218958482E-04  1.60174719884E-04  1.64230621862E-04
  1.68389199487E-04  1.72653052006E-04  1.77024844465E-04  1.81507309378E-04
  1.86103248430E-04  1.90815534233E-04  1.95647112119E-04  2.00601001982E-04
  2.05680300164E-04  2.10888181391E-04  2.16227900759E-04  2.21702795767E-04
  2.27316288401E-04  2.33071887278E-04  2.38973189835E-04  2.45023884577E-04
  2.51227753385E-04  2.57588673880E-04  2.64110621844E-04  2.70797673707E-04
  2.77654009094E-04  2.84683913437E-04  2.91891780656E-04  2.99282115903E-04
  3.06859538377E-04  3.14628784214E-04  3.22594709446E-04  3.30762293035E-04
  3.39136639988E-04  3.47722984542E-04  3.56526693444E-04  3.65553269298E-04
  3.74808354007E-04  3.84297732302E-04  3.94027335351E-04  4.04003244475E-04
  4.14231694940E-04  4.24719079862E-04  4.35471954196E-04  4.46497038841E-04
  4.57801224832E-04  4.69391577654E-04  4.81275341655E-04  4.93459944573E-04
  5.05953002183E-04  5.18762323052E-04  5.31895913423E-04  5.45361982217E-04
  5.59168946165E-04  5.73325435070E-04  5.87840297197E-04  6.02722604809E-04
  6.17981659832E-04  6.33626999671E-04  6.49668403175E-04  6.66115896741E-04
  6.82979760590E-04  7.00270535184E-04  7.17999027821E-04  7.36176319385E-04
  7.54813771277E-04  7.73923032509E-04  7.93516046993E-04  8.13605061000E-04
  8.34202630818E-04  8.55321630598E-04  8.76975260402E-04  8.99177054456E-04
  9.21940889601E-04  9.45280993977E-04  9.69211955908E-04  9.93748733025E-04
  1.01890666161E-03  1.04470146619E-03  1.07114926936E-03  1.09826660185E-03
  1.12607041289E-03  1.15457808075E-03  1.18380742365E-03  1.21377671090E-03
  1.24450467427E-03  1.27601051973E-03  1.30831393946E-03  1.34143512416E-03
  1.37539477565E-03  1.41021411980E-03  1.44591491985E-03  1.48251948995E-03
  1.52005070916E-03  1.55853203570E-03  1.59798752167E-03  1.63844182801E-03
  1.67992024000E-03  1.72244868299E-03  1.76605373863E-03  1.81076266152E-03
  1.85660339617E-03  1.90360459455E-03  1.95179563393E-03  2.00120663529E-03
  2.05186848209E-03  2.10381283965E-03  2.15707217489E-03  2.21167977662E-03
  2.26766977636E-03  2.32507716970E-03  2.38393783812E-03  2.44428857145E-03
  2.50616709087E-03  2.56961207247E-03  2.63466317143E-03  2.70136104679E-03
  2.76974738691E-03  2.83986493547E-03  2.91175751823E-03  2.98547007038E-03
  3.06104866467E-03  3.13854054019E-03  3.21799413187E-03  3.29945910081E-03
  3.38298636525E-03  3.46862813245E-03  3.55643793132E-03  3.64647064583E-03
  3.73878254936E-03  3.83343133985E-03  3.93047617588E-03  4.02997771363E-03
  4.13199814480E-03  4.23660123548E-03  4.34385236601E-03  4.45381857183E-03
  4.56656858541E-03  4.68217287917E-03  4.80070370956E-03  4.92223516221E-03
  5.04684319823E-03  5.17460570170E-03  5.30560252835E-03  5.43991555545E-03
  5.57762873301E-03  5.71882813627E-03  5.86360201944E-03  6.01204087091E-03
  6.16423746979E-03  6.32028694392E-03  6.48028682929E-03  6.64433713105E-03
  6.81254038596E-03  6.98500172655E-03  7.16182894676E-03  7.34313256936E-03
  7.52902591502E-03  7.71962517313E-03  7.91504947443E-03  8.11542096547E-03
  8.32086488496E-03  8.53150964203E-03  8.74748689651E-03  8.96893164122E-03
  9.19598228633E-03  9.42878074589E-03  9.66747252651E-03  9.91220681833E-03
  1.01631365882E-02  1.04204186755E-02  1.06842138898E-02  1.09546871118E-02
  1.12320073960E-02  1.15163480766E-02  1.18078868758E-02  1.21068060148E-02
  1.24132923279E-02  1.27275373789E-02  1.30497375813E-02  1.33800943206E-02
  1.37188140806E-02  1.40661085721E-02  1.44221948656E-02  1.47872955265E-02
  1.51616387546E-02  1.55454585267E-02  1.59389947425E-02  1.63424933751E-02
  1.67562066242E-02  1.71803930741E-02  1.76153178550E-02  1.80612528092E-02
  1.85184766606E-02  1.89872751888E-02  1.94679414083E-02  1.99607757510E-02
  2.04660862546E-02  2.09841887544E-02  2.15154070815E-02  2.20600732645E-02
  2.26185277376E-02  2.31911195530E-02  2.37782065992E-02  2.43801558248E-02
  2.49973434675E-02  2.56301552898E-02  2.62789868197E-02  2.69442435979E-02
  2.76263414317E-02  2.83257066543E-02  2.90427763919E-02  2.97779988362E-02
  3.05318335254E-02  3.13047516305E-02  3.20972362507E-02  3.29097827145E-02
  3.37428988900E-02  3.45971055019E-02  3.54729364571E-02  3.63709391785E-02
  3.72916749471E-02  3.82357192525E-02  3.92036621534E-02  4.01961086454E-02
  4.12136790401E-02  4.22570093518E-02  4.33267516962E-02  4.44235746970E-02
  4.55481639042E-02  4.67012222228E-02  4.78834703516E-02  4.90956472343E-02
  5.03385105209E-02  5.16128370414E-02  5.29194232914E-02  5.42590859297E-02
  5.56326622892E-02  5.70410108998E-02  5.84850120252E-02  5.99655682131E-02
  6.14836048594E-02  6.30400707863E-02  6.46359388358E-02  6.62722064773E-02
  6.79498964313E-02  6.96700573087E-02  7.14337642661E-02  7.32421196776E-02
  7.50962538244E-02  7.69973256005E-02  7.89465232378E-02  8.09450650482E-02
  8.29942001853E-02  8.50952094255E-02  8.72494059678E-02  8.94581362552E-02
  9.17227808160E-02  9.40447551269E-02  9.64255104972E-02  9.88665349767E-02
  1.01369354285E-01  1.03935532766E-01  1.06566674364E-01  1.09264423629E-01
  1.12030466742E-01  1.14866532570E-01  1.17774393746E-01  1.20755867778E-01
  1.23812818184E-01  1.26947155659E-01  1.30160839264E-01  1.33455877657E-01
  1.36834330344E-01  1.40298308969E-01  1.43849978629E-01  1.47491559235E-01
  1.51225326893E-01  1.55053615330E-01  1.58978817349E-01  1.63003386331E-01
  1.67129837761E-01  1.71360750807E-01  1.75698769926E-01  1.80146606523E-01
  1.84707040639E-01  1.89382922694E-01  1.94177175267E-01  1.99092794921E-01
  2.04132854080E-01  2.09300502944E-01  2.14598971461E-01  2.20031571348E-01
  2.25601698155E-01  2.31312833394E-01  2.37168546710E-01  2.43172498114E-01
  2.49328440272E-01  2.55640220847E-01  2.62111784908E-01  2.68747177394E-01
  2.75550545640E-01  2.82526141973E-01  2.89678326368E-01  2.97011569173E-01
  3.04530453903E-01  3.12239680107E-01  3.20144066301E-01  3.28248552984E-01
  3.36558205724E-01  3.45078218325E-01  3.53813916072E-01  3.62770759060E-01
  3.71954345608E-01  3.81370415757E-01  3.91024854856E-01  4.00923697244E-01
  4.11073130021E-01  4.21479496911E-01  4.32149302234E-01  4.43089214964E-01
  4.54306072903E-01  4.65806886953E-01  4.77598845497E-01  4.89689318893E-01
  5.02085864080E-01  5.14796229303E-01  5.27828358953E-01  5.41190398535E-01
  5.54890699761E-01  5.68937825762E-01  5.83340556452E-01  5.98107894005E-01
  6.13249068488E-01  6.28773543628E-01  6.44691022727E-01  6.61011454728E-01
  6.77745040432E-01  6.94902238875E-01  7.12493773865E-01  7.30530640683E-01
  7.49024112958E-01  7.67985749713E-01  7.87427402588E-01  8.07361223248E-01
  8.27799670981E-01  8.48755520482E-01  8.70241869838E-01  8.92272148718E-01
  9.14860126763E-01  9.38019922195E-01  9.61766010639E-01  9.86113234174E-01
  1.01107681061E+00  1.03667234299E+00  1.06291582935E+00  1.08982367274E+00
  1.11741269143E+00  1.14570012945E+00  1.17470366737E+00  1.20444143335E+00
  1.23493201446E+00  1.26619446830E+00  1.29824833493E+00  1.33111364906E+00
  1.36481095258E+00  1.39936130740E+00  1.43478630861E+00  1.47110809800E+00
  1.50834937786E+00  1.54653342522E+00  1.58568410633E+00  1.62582589166E+00
  1.66698387111E+00  1.70918376978E+00  1.75245196397E+00  1.79681549771E+00
  1.84230209966E+00  1.88894020041E+00  1.93675895031E+00  1.98578823762E+00
  2.03605870726E+00  2.08760177988E+00  2.14044967161E+00  2.19463541408E+00
  2.25019287516E+00  2.30715678005E+00  2.36556273307E+00  2.42544723982E+00
  2.48684773009E+00  2.54980258116E+00  2.61435114187E+00  2.68053375718E+00
  2.74839179337E+00  2.81796766393E+00  2.88930485604E+00  2.96244795776E+00
  3.03744268592E+00  3.11433591466E+00  3.19317570475E+00  3.27401133363E+00
  3.35689332620E+00  3.44187348640E+00  3.52900492960E+00  3.61834211578E+00
  3.70994088360E+00  3.80385848527E+00  3.90015362234E+00  3.99888648241E+00
  4.10011877674E+00  4.20391377880E+00  4.31033636384E+00  4.41945304945E+00
  4.53133203711E+00  4.64604325482E+00  4.76365840084E+00  4.88425098846E+00
  5.00789639196E+00  5.13467189376E+00  5.26465673266E+00  5.39793215343E+00
  5.53458145753E+00  5.67469005524E+00  5.81834551899E+00  5.96563763811E+00
  6.11665847499E+00  6.27150242255E+00  6.43026626330E+00  6.59304922982E+00
  6.75995306676E+00  6.93108209444E+00  7.10654327409E+00  7.28644627464E+00
  7.47090354134E+00  7.66003036598E+00  7.85394495897E+00  8.05276852326E+00
  8.25662533004E+00  8.46564279646E+00  8.67995156522E+00  8.89968558630E+00
  9.12498220061E+00  9.35598222586E+00  9.59283004459E+00  9.83567369440E+00
  1.00846649605E+01  1.03399594705E+01  1.06017167917E+01  1.08701005311E+01
  1.11452784373E+01  1.14274225052E+01  1.17167090843E+01  1.20133189880E+01
  1.23174376071E+01  1.26292550257E+01  1.29489661399E+01  1.32767707795E+01
  1.36128738330E+01  1.39574853758E+01  1.43108208014E+01  1.46731009558E+01
  1.50445522761E+01  1.54254069312E+01  1.58159029679E+01  1.62162844588E+01
  1.66268016554E+01  1.70477111443E+01  1.74792760076E+01  1.79217659875E+01
  1.83754576545E+01  1.88406345808E+01  1.93175875170E+01  1.98066145743E+01
  2.03080214105E+01  2.08221214212E+01  2.13492359356E+01  2.18896944175E+01
  2.24438346710E+01  2.30120030518E+01  2.35945546836E+01  2.41918536802E+01
  2.48042733729E+01  2.54321965439E+01  2.60760156656E+01  2.67361331461E+01
  2.74129615801E+01  2.81069240075E+01  2.88184541773E+01  2.95479968192E+01
  3.02960079210E+01  3.10629550140E+01  3.18493174651E+01  3.26555867764E+01
  3.34822668925E+01  3.43298745154E+01  3.51989394274E+01  3.60900048224E+01
  3.70036276453E+01  3.79403789400E+01  3.89008442067E+01  3.98856237673E+01
  4.08953331412E+01  4.19306034297E+01  4.29920817102E+01  4.40804314413E+01
  4.51963328771E+01  4.63404834922E+01  4.75135984180E+01  4.87164108896E+01
  4.99496727039E+01  5.12141546896E+01  5.25106471892E+01  5.38399605526E+01
  5.52029256441E+01  5.66003943611E+01  5.80332401672E+01  5.95023586375E+01
  6.10086680190E+01  6.25531098039E+01  6.41366493189E+01  6.57602763275E+01
  6.74250056495E+01  6.91318777949E+01  7.08819596144E+01  7.26763449661E+01
  7.45161553993E+01  7.64025408553E+01  7.83366803865E+01  8.03197828930E+01
  8.23530878785E+01  8.44378662248E+01  8.65754209861E+01  8.87670882039E+01
  9.10142377415E+01  9.33182741404E+01  9.56806374984E+01  9.81028043696E+01
  1.00586288687E+02  1.03132642709E+02  1.05743457991E+02  1.08420366375E+02
  1.11165041019E+02  1.13979197431E+02  1.16864594552E+02  1.19823035850E+02
  1.22856370445E+02  1.25966494271E+02  1.29155351256E+02  1.32424934541E+02
  1.35777287720E+02  1.39214506124E+02  1.42738738127E+02  1.46352186487E+02
  1.50057109728E+02  1.53855823547E+02  1.57750702265E+02  1.61744180307E+02
  1.65838753726E+02  1.70036981766E+02  1.74341488454E+02  1.78754964247E+02
  1.83280167713E+02  1.87919927249E+02  1.92677142857E+02  1.97554787952E+02
  2.02555911220E+02
  </PP_R>
  <PP_RAB>
  1.04644879953E-09  1.07293977701E-09  1.10010137678E-09  1.12795057572E-09
  1.15650478049E-09  1.18578183840E-09  1.21580004855E-09  1.24657817332E-09
  1.27813545002E-09  1.31049160298E-09  1.34366685586E-09  1.37768194426E-09
  1.41255812872E-09  1.44831720800E-09  1.48498153267E-09  1.52257401915E-09
  1.56111816395E-09  1.60063805843E-09  1.64115840379E-09  1.68270452658E-09
  1.72530239448E-09  1.76897863254E-09  1.81376053983E-09  1.85967610649E-09
  1.90675403127E-09  1.95502373938E-09  2.00451540097E-09  2.05525994994E-09
  2.10728910328E-09  2.16063538091E-09  2.21533212599E-09  2.27141352576E-09
  2.32891463292E-09  2.38787138755E-09  2.44832063952E-09  2.51030017159E-09
  2.57384872299E-09  2.63900601362E-09  2.70581276892E-09  2.77431074528E-09
  2.84454275617E-09  2.91655269888E-09  2.99038558197E-09  3.06608755339E-09
  3.14370592934E-09  3.22328922384E-09  3.30488717902E-09  3.38855079628E-09
  3.47433236809E-09  3.56228551073E-09  3.65246519778E-09  3.74492779447E-09
  3.83973109294E-09  3.93693434834E-09  4.03659831587E-09  4.13878528874E-09
  4.24355913715E-09  4.35098534816E-09  4.46113106665E-09  4.57406513728E-09
  4.68985814751E-09  4.80858247176E-09  4.93031231659E-09  5.05512376710E-09
  5.18309483453E-09  5.31430550496E-09  5.44883778932E-09  5.58677577467E-09
  5.72820567675E-09  5.87321589385E-09  6.02189706207E-09  6.17434211198E-09
  6.33064632670E-09  6.49090740146E-09  6.65522550464E-09  6.82370334041E-09
  6.99644621290E-09  7.17356209202E-09  7.35516168097E-09  7.54135848540E-09
  7.73226888437E-09  7.92801220311E-09  8.12871078755E-09  8.33449008084E-09
  8.54547870175E-09  8.76180852502E-09  8.98361476385E-09  9.21103605434E-09
  9.44421454221E-09  9.68329597160E-09  9.92842977620E-09  1.01797691726E-08
  1.04374712561E-08  1.07016970989E-08  1.09726118508E-08  1.12503848423E-08
  1.15351896905E-08  1.18272044078E-08  1.21266115128E-08  1.24335981448E-08
  1.27483561804E-08  1.30710823536E-08  1.34019783788E-08  1.37412510767E-08
  1.40891125039E-08  1.44457800850E-08  1.48114767489E-08  1.51864310680E-08
  1.55708774008E-08  1.59650560389E-08  1.63692133567E-08  1.67836019657E-08
  1.72084808723E-08  1.76441156396E-08  1.80907785536E-08  1.85487487930E-08
  1.90183126043E-08  1.94997634801E-08  1.99934023428E-08  2.04995377328E-08
  2.10184860012E-08  2.15505715075E-08  2.20961268226E-08  2.26554929362E-08
  2.32290194705E-08  2.38170648980E-08  2.44199967664E-08  2.50381919278E-08
  2.56720367742E-08  2.63219274792E-08  2.69882702458E-08  2.76714815598E-08
  2.83719884506E-08  2.90902287577E-08  2.98266514048E-08  3.05817166799E-08
  3.13558965235E-08  3.21496748232E-08  3.29635477162E-08  3.37980238995E-08
  3.46536249480E-08  3.55308856402E-08  3.64303542925E-08  3.73525931022E-08
  3.82981784984E-08  3.92677015030E-08  4.02617680993E-08  4.12809996112E-08
  4.23260330917E-08  4.33975217208E-08  4.44961352136E-08  4.56225602394E-08
  4.67775008505E-08  4.79616789224E-08  4.91758346048E-08  5.04207267848E-08
  5.16971335602E-08  5.30058527271E-08  5.43477022774E-08  5.57235209107E-08
  5.71341685586E-08  5.85805269218E-08  6.00635000212E-08  6.15840147633E-08
  6.31430215194E-08  6.47414947195E-08  6.63804334612E-08  6.80608621348E-08
  6.97838310627E-08  7.15504171567E-08  7.33617245906E-08  7.52188854905E-08
  7.71230606424E-08  7.90754402178E-08  8.10772445174E-08  8.31297247342E-08
  8.52341637350E-08  8.73918768627E-08  8.96042127584E-08  9.18725542039E-08
  9.41983189864E-08  9.65829607847E-08  9.90279700776E-08  1.01534875075E-07
  1.04105242675E-07  1.06740679441E-07  1.09442832606E-07  1.12213391104E-07
  1.15054086624E-07  1.17966694694E-07  1.20953035788E-07  1.24014976467E-07
  1.27154430543E-07  1.30373360277E-07  1.33673777606E-07  1.37057745397E-07
  1.40527378740E-07  1.44084846270E-07  1.47732371519E-07  1.51472234309E-07
  1.55306772177E-07  1.59238381833E-07  1.63269520661E-07  1.67402708255E-07
  1.71640527990E-07  1.75985628643E-07  1.80440726043E-07  1.85008604770E-07
  1.89692119898E-07  1.94494198776E-07  1.99417842859E-07  2.04466129586E-07
  2.09642214299E-07  2.14949332221E-07  2.20390800473E-07  2.25970020150E-07
  2.31690478445E-07  2.37555750831E-07  2.43569503294E-07  2.49735494626E-07
  2.56057578772E-07  2.62539707240E-07  2.69185931571E-07  2.76000405872E-07
  2.82987389412E-07  2.90151249282E-07  2.97496463128E-07  3.05027621947E-07
  3.12749432960E-07  3.20666722549E-07  3.28784439279E-07  3.37107656986E-07
  3.45641577952E-07  3.54391536156E-07  3.63363000607E-07  3.72561578761E-07
  3.81993020031E-07  3.91663219372E-07  4.01578220975E-07  4.11744222039E-07
  4.22167576646E-07  4.32854799730E-07  4.43812571155E-07  4.55047739884E-07
  4.66567328263E-07  4.78378536411E-07  4.90488746716E-07  5.02905528455E-07
  5.15636642521E-07  5.28690046273E-07  5.42073898514E-07  5.55796564588E-07
  5.69866621608E-07  5.84292863817E-07  5.99084308086E-07  6.14250199550E-07
  6.29800017383E-07  6.45743480730E-07  6.62090554772E-07  6.78851456964E-07
  6.96036663416E-07  7.13656915439E-07  7.31723226267E-07  7.50246887930E-07
  7.69239478321E-07  7.88712868427E-07  8.08679229751E-07  8.29151041917E-07
  8.50141100476E-07  8.71662524898E-07  8.93728766772E-07  9.16353618219E-07
  9.39551220507E-07  9.63336072893E-07  9.87723041684E-07  1.01272736953E-06
  1.03836468495E-06  1.06465101209E-06  1.09160278078E-06  1.11923683674E-06
  1.14757045216E-06  1.17662133647E-06  1.20640764741E-06  1.23694800241E-06
  1.26826149017E-06  1.30036768265E-06  1.33328664726E-06  1.36703895943E-06
  1.40164571545E-06  1.43712854567E-06  1.47350962801E-06  1.51081170184E-06
  1.54905808216E-06  1.58827267421E-06  1.62847998839E-06  1.66970515556E-06
  1.71197394282E-06  1.75531276951E-06  1.79974872383E-06  1.84530957969E-06
  1.89202381410E-06  1.93992062499E-06  1.98902994942E-06  2.03938248232E-06
  2.09100969565E-06  2.14394385812E-06  2.19821805528E-06  2.25386621029E-06
  2.31092310505E-06  2.36942440198E-06  2.42940666629E-06  2.49090738885E-06
  2.55396500961E-06  2.61861894164E-06  2.68490959576E-06  2.75287840577E-06
  2.82256785441E-06  2.89402149983E-06  2.96728400290E-06  3.04240115506E-06
  3.11941990698E-06  3.19838839790E-06  3.27935598567E-06  3.36237327769E-06
  3.44749216246E-06  3.53476584206E-06  3.62424886538E-06  3.71599716222E-06
  3.81006807825E-06  3.90652041086E-06  4.00541444589E-06  4.10681199534E-06
  4.21077643597E-06  4.31737274895E-06  4.42666756044E-06  4.53872918325E-06
  4.65362765955E-06  4.77143480463E-06  4.89222425178E-06  5.01607149835E-06
  5.14305395289E-06  5.27325098357E-06  5.40674396778E-06  5.54361634296E-06
  5.68395365883E-06  5.82784363076E-06  5.97537619467E-06  6.12664356321E-06
  6.28174028343E-06  6.44076329580E-06  6.60381199491E-06  6.77098829148E-06
  6.94239667615E-06  7.11814428473E-06  7.29834096521E-06  7.48309934637E-06
  7.67253490822E-06  7.86676605415E-06  8.06591418495E-06  8.27010377468E-06
  8.47946244849E-06  8.69412106235E-06  8.91421378490E-06  9.13987818125E-06
  9.37125529898E-06  9.60848975634E-06  9.85172983258E-06  1.01011275607E-05
  1.03568388223E-05  1.06190234453E-05  1.08878453037E-05  1.11634724198E-05
  1.14460770696E-05  1.17358358902E-05  1.20329299902E-05  1.23375450631E-05
  1.26498715034E-05  1.29701045251E-05  1.32984442844E-05  1.36350960042E-05
  1.39802701029E-05  1.43341823255E-05  1.46970538787E-05  1.50691115690E-05
  1.54505879446E-05  1.58417214406E-05  1.62427565282E-05  1.66539438673E-05
  1.70755404635E-05  1.75078098284E-05  1.79510221443E-05  1.84054544334E-05
  1.88713907307E-05  1.93491222615E-05  1.98389476236E-05  2.03411729738E-05
  2.08561122192E-05  2.13840872137E-05  2.19254279589E-05  2.24804728102E-05
  2.30495686888E-05  2.36330712982E-05  2.42313453465E-05  2.48447647744E-05
  2.54737129891E-05  2.61185831036E-05  2.67797781828E-05  2.74577114951E-05
  2.81528067709E-05  2.88654984674E-05  2.95962320401E-05  3.03454642213E-05
  3.11136633054E-05  3.19013094420E-05  3.27088949354E-05  3.35369245529E-05
  3.43859158400E-05  3.52563994438E-05  3.61489194450E-05  3.70640336976E-05
  3.80023141777E-05  3.89643473413E-05  3.99507344904E-05  4.09620921491E-05
  4.19990524488E-05  4.30622635235E-05  4.41523899146E-05  4.52701129867E-05
  4.64161313531E-05  4.75911613126E-05  4.87959372972E-05  5.00312123309E-05
  5.12977585011E-05  5.25963674402E-05  5.39278508211E-05  5.52930408642E-05
  5.66927908579E-05  5.81279756913E-05  5.95994924018E-05  6.11082607351E-05
  6.26552237207E-05  6.42413482606E-05  6.58676257345E-05  6.75350726186E-05
  6.92447311216E-05  7.09976698356E-05  7.27949844045E-05  7.46377982082E-05
  7.65272630655E-05  7.84645599535E-05  8.04508997456E-05  8.24875239689E-05
  8.45757055800E-05  8.67167497602E-05  8.89119947318E-05  9.11628125945E-05
  9.34706101827E-05  9.58368299450E-05  9.82629508457E-05  1.00750489289E-04
  1.03301000069E-04  1.05916077336E-04  1.08597355599E-04  1.11346510745E-04
  1.14165261084E-04  1.17055368428E-04  1.20018639188E-04  1.23056925504E-04
  1.26172126405E-04  1.29366188991E-04  1.32641109657E-04  1.35998935335E-04
  1.39441764774E-04  1.42971749856E-04  1.46591096935E-04  1.50302068221E-04
  1.54106983194E-04  1.58008220047E-04  1.62008217181E-04  1.66109474725E-04
  1.70314556098E-04  1.74626089613E-04  1.79046770118E-04  1.83579360683E-04
  1.88226694324E-04  1.92991675777E-04  1.97877283310E-04  2.02886570586E-04
  2.08022668573E-04  2.13288787500E-04  2.18688218862E-04  2.24224337479E-04
  2.29900603607E-04  2.35720565096E-04  2.41687859612E-04  2.47806216907E-04
  2.54079461155E-04  2.60511513337E-04  2.67106393695E-04  2.73868224244E-04
  2.80801231348E-04  2.87909748363E-04  2.95198218343E-04  3.02671196819E-04
  3.10333354646E-04  3.18189480922E-04  3.26244485981E-04  3.34503404464E-04
  3.42971398464E-04  3.51653760752E-04  3.60555918089E-04  3.69683434611E-04
  3.79042015314E-04  3.88637509615E-04  3.98475915012E-04  4.08563380826E-04
  4.18906212054E-04  4.29510873300E-04  4.40383992824E-04  4.51532366680E-04
  4.62962962963E-04  4.74682926169E-04  4.86699581656E-04  4.99020440224E-04
  5.11653202813E-04  5.24605765309E-04  5.37886223485E-04  5.51502878061E-04
  5.65464239889E-04  5.79779035274E-04  5.94456211430E-04  6.09504942068E-04
  6.24934633137E-04  6.40754928695E-04  6.56975716941E-04  6.73607136397E-04
  6.90659582241E-04  7.08143712807E-04  7.26070456245E-04  7.44451017355E-04
  7.63296884583E-04  7.82619837213E-04  8.02431952716E-04  8.22745614312E-04
  8.43573518699E-04  8.64928683996E-04  8.86824457877E-04  9.09274525912E-04
  9.32292920125E-04  9.55894027762E-04  9.80092600284E-04  1.00490376258E-03
  1.03034302245E-03  1.05642628025E-03  1.08316983885E-03  1.11059041387E-03
  1.13870514405E-03  1.16753160202E-03  1.19708780524E-03  1.22739222731E-03
  1.25846380947E-03  1.29032197248E-03  1.32298662873E-03  1.35647819469E-03
  1.39081760368E-03  1.42602631894E-03  1.46212634708E-03  1.49914025178E-03
  1.53709116793E-03  1.57600281611E-03  1.61589951734E-03  1.65680620838E-03
  1.69874845723E-03  1.74175247917E-03  1.78584515310E-03  1.83105403839E-03
  1.87740739206E-03  1.92493418646E-03  1.97366412739E-03  2.02362767265E-03
  2.07485605108E-03  2.12738128209E-03  2.18123619564E-03  2.23645445283E-03
  2.29307056685E-03  2.35111992462E-03  2.41063880888E-03  2.47166442087E-03
  2.53423490358E-03  2.59838936560E-03  2.66416790556E-03  2.73161163718E-03
  2.80076271501E-03  2.87166436070E-03  2.94436089009E-03  3.01889774089E-03