<PP_INFO>
Generated using Andrea Dal Corso code (rrkj3)
Author: Paolo Giannozzi   Generation date:  16 Nov 2000
Zr PW91 4s2 4p6 4d0 RRKJ3 US with semicore states
    1        The Pseudo was generated with a Scalar-Relativistic Calculation
  1.50000000000E+00    Local Potential cutoff radius
nl pn  l   occ               Rcut            Rcut US             E pseu
4S  1  0  2.00      1.10000000000      2.00000000000      0.00000000000
4S  1  0  0.00      1.00000000000      2.00000000000      0.00000000000
4P  2  1  6.00      1.20000000000      2.00000000000      0.00000000000
4P  2  1  0.00      1.10000000000      2.00000000000      0.00000000000
4D  3  2  2.00      1.50000000000      2.00000000000      0.00000000000
4D  3  2  0.00      1.50000000000      2.00000000000      0.00000000000
</PP_INFO>


<PP_HEADER>
   0                   Version Number
  Zr                   Element
   US                  Ultrasoft pseudopotential
    F                  Nonlinear Core Correction
 SLA  PW   GGX  GGC    PW91 Exchange-Correlation functional
   12.00000000000      Z valence
  -92.10110838100      Total energy
  0.0000000  0.0000000 Suggested cutoff for wfc and rho
    2                  Max angular momentum component
  473                  Number of points in mesh
    3    6             Number of Wavefunctions, Number of Projectors
 Wavefunctions         nl  l   occ
                       4S  0  2.00
                       4P  1  6.00
                       4D  2  2.00
</PP_HEADER>


<PP_MESH>
  <PP_R>
  4.57890972218E-04  4.69482537367E-04  4.81367544385E-04  4.93553421787E-04
  5.06047786145E-04  5.18858446842E-04  5.31993410959E-04  5.45460888276E-04
  5.59269296404E-04  5.73427266048E-04  5.87943646400E-04  6.02827510670E-04
  6.18088161758E-04  6.33735138068E-04  6.49778219469E-04  6.66227433409E-04
  6.83093061182E-04  7.00385644356E-04  7.18115991356E-04  7.36295184228E-04
  7.54934585558E-04  7.74045845579E-04  7.93640909452E-04  8.13732024728E-04
  8.34331749008E-04  8.55452957792E-04  8.77108852521E-04  8.99312968836E-04
  9.22079185031E-04  9.45421730733E-04  9.69355195793E-04  9.93894539406E-04
  1.01905509946E-03  1.04485260212E-03  1.07130317168E-03  1.09842334059E-03
  1.12623005984E-03  1.15474070954E-03  1.18397310978E-03  1.21394553175E-03
  1.24467670920E-03  1.27618585010E-03  1.30849264871E-03  1.34161729782E-03
  1.37558050141E-03  1.41040348759E-03  1.44610802187E-03  1.48271642074E-03
  1.52025156563E-03  1.55873691724E-03  1.59819653017E-03  1.63865506795E-03
  1.68013781849E-03  1.72267070987E-03  1.76628032651E-03  1.81099392586E-03
  1.85683945536E-03  1.90384556997E-03  1.95204165003E-03  2.00145781967E-03
  2.05212496560E-03  2.10407475643E-03  2.15733966248E-03  2.21195297605E-03
  2.26794883224E-03  2.32536223027E-03  2.38422905539E-03  2.44458610128E-03
  2.50647109307E-03  2.56992271088E-03  2.63498061405E-03  2.70168546587E-03
  2.77007895906E-03  2.84020384177E-03  2.91210394434E-03  2.98582420667E-03
  3.06141070632E-03  3.13891068733E-03  3.21837258970E-03  3.29984607970E-03
  3.38338208092E-03  3.46903280607E-03  3.55685178966E-03  3.64689392141E-03
  3.73921548057E-03  3.83387417112E-03  3.93092915784E-03  4.03044110324E-03
  4.13247220554E-03  4.23708623749E-03  4.34434858626E-03  4.45432629432E-03
  4.56708810132E-03  4.68270448705E-03  4.80124771552E-03  4.92279188010E-03
  5.04741294987E-03  5.17518881703E-03  5.30619934567E-03  5.44052642163E-03
  5.57825400371E-03  5.71946817613E-03  5.86425720234E-03  6.01271158021E-03
  6.16492409854E-03  6.32098989512E-03  6.48100651615E-03  6.64507397722E-03
  6.81329482585E-03  6.98577420554E-03  7.16261992150E-03  7.34394250809E-03
  7.52985529781E-03  7.72047449220E-03  7.91591923448E-03  8.11631168396E-03
  8.32177709245E-03  8.53244388252E-03  8.74844372778E-03  8.96991163515E-03
  9.19698602929E-03  9.42980883908E-03  9.66852558636E-03  9.91328547687E-03
  1.01642414935E-02  1.04215504920E-02  1.06853732987E-02  1.09558748116E-02
  1.12332241029E-02  1.15175945250E-02  1.18091638185E-02  1.21081142239E-02
  1.24146325948E-02  1.27289105152E-02  1.30511444190E-02  1.33815357130E-02
  1.37202909024E-02  1.40676217202E-02  1.44237452595E-02  1.47888841092E-02
  1.51632664928E-02  1.55471264116E-02  1.59407037905E-02  1.63442446282E-02
  1.67580011509E-02  1.71822319698E-02  1.76172022430E-02  1.80631838411E-02
  1.85204555170E-02  1.89893030806E-02  1.94700195768E-02  1.99629054690E-02
  2.04682688269E-02  2.09864255192E-02  2.15176994106E-02  2.20624225646E-02
  2.26209354509E-02  2.31935871582E-02  2.37807356125E-02  2.43827478007E-02
  2.50000000000E-02  2.56328780131E-02  2.62817774094E-02  2.69471037721E-02
  2.76292729519E-02  2.83287113267E-02  2.90458560682E-02  2.97811554153E-02
  3.05350689540E-02  3.13080679048E-02  3.21006354172E-02  3.29132668717E-02
  3.37464701894E-02  3.46007661495E-02  3.54766887148E-02  3.63747853655E-02
  3.72956174410E-02  3.82397604916E-02  3.92078046373E-02  4.02003549371E-02
  4.12180317675E-02  4.22614712095E-02  4.33313254467E-02  4.44282631729E-02
  4.55529700098E-02  4.67061489358E-02  4.78885207253E-02  4.91008243992E-02
  5.03438176868E-02  5.16182774992E-02  5.29250004153E-02  5.42648031796E-02
  5.56385232123E-02  5.70470191332E-02  5.84911712981E-02  5.99718823492E-02
  6.14900777789E-02  6.30467065090E-02  6.46427414829E-02  6.62791802746E-02
  6.79570457115E-02  6.96773865141E-02  7.14412779516E-02  7.32498225133E-02
  7.51041505987E-02  7.70054212230E-02  7.89548227422E-02  8.09535735959E-02
  8.30029230684E-02  8.51041520698E-02  8.72585739365E-02  8.94675352525E-02
  9.17324166905E-02  9.40546338750E-02  9.64356382674E-02  9.88769180730E-02
  1.01379999171E-01  1.03946446069E-01  1.06577862879E-01  1.09275894323E-01
  1.12042226758E-01  1.14878589233E-01  1.17786754565E-01  1.20768540453E-01
  1.23825810610E-01  1.26960475930E-01  1.30174495679E-01  1.33469878727E-01
  1.36848684793E-01  1.40313025742E-01  1.43865066900E-01  1.47507028408E-01
  1.51241186610E-01  1.55069875478E-01  1.58995488065E-01  1.63020478008E-01
  1.67147361057E-01  1.71378716647E-01  1.75717189515E-01  1.80165491346E-01
  1.84726402473E-01  1.89402773616E-01  1.94197527658E-01  1.99113661476E-01
  2.04154247814E-01  2.09322437203E-01  2.14621459929E-01  2.20054628055E-01
  2.25625337486E-01  2.31337070098E-01  2.37193395909E-01  2.43197975314E-01
  2.49354561370E-01  2.55667002145E-01  2.62139243118E-01  2.68775329652E-01
  2.75579409516E-01  2.82555735482E-01  2.89708667981E-01  2.97042677827E-01
  3.04562349018E-01  3.12272381590E-01  3.20177594567E-01  3.28282928962E-01
  3.36593450875E-01  3.45114354652E-01  3.53850966134E-01  3.62808745990E-01
  3.71993293122E-01  3.81410348171E-01  3.91065797105E-01  4.00965674891E-01
  4.11116169277E-01  4.21523624652E-01  4.32194546014E-01  4.43135603037E-01
  4.54353634236E-01  4.65855651247E-01  4.77648843206E-01  4.89740581240E-01
  5.02138423080E-01  5.14850117780E-01  5.27883610564E-01  5.41247047788E-01
  5.54948782036E-01  5.68997377338E-01  5.83401614524E-01  5.98170496709E-01
  6.13313254928E-01  6.28839353895E-01  6.44758497930E-01  6.61080637014E-01
  6.77815973016E-01  6.94974966067E-01  7.12568341094E-01  7.30607094531E-01
  7.49102501185E-01  7.68066121288E-01  7.87509807719E-01  8.07445713415E-01
  8.27886298967E-01  8.48844340406E-01  8.70332937190E-01  8.92365520391E-01
  9.14955861092E-01  9.38118078990E-01  9.61866651226E-01  9.86216421430E-01
  1.01118260900E+00  1.03678081862E+00  1.06302705000E+00  1.08993770789E+00
  1.11752961233E+00  1.14582000916E+00  1.17482658079E+00  1.20456745728E+00
  1.23506122764E+00  1.26632695147E+00  1.29838417087E+00  1.33125292264E+00
  1.36495375083E+00  1.39950771954E+00  1.43493642614E+00  1.47126201471E+00
  1.50850718993E+00  1.54669523126E+00  1.58585000745E+00  1.62599599153E+00
  1.66715827602E+00  1.70936258871E+00  1.75263530867E+00  1.79700348274E+00
  1.84249484249E+00  1.88913782149E+00  1.93696157313E+00  1.98599598881E+00
  2.03627171662E+00  2.08782018055E+00  2.14067360006E+00  2.19486501024E+00
  2.25042828251E+00  2.30739814572E+00  2.36581020787E+00  2.42570097842E+00
  2.48710789105E+00  2.55006932707E+00  2.61462463943E+00  2.68081417730E+00
  2.74867931130E+00  2.81826245935E+00  2.88960711318E+00  2.96275786552E+00
  3.03776043797E+00  3.11466170958E+00  3.19350974615E+00  3.27435383027E+00
  3.35724449212E+00  3.44223354107E+00  3.52937409804E+00  3.61872062870E+00
  3.71032897756E+00  3.80425640282E+00  3.90056161216E+00  3.99930479948E+00
  4.10054768250E+00  4.20435354130E+00  4.31078725792E+00  4.41991535691E+00
  4.53180604688E+00  4.64652926315E+00  4.76415671147E+00  4.88476191281E+00
  5.00842024937E+00  5.13520901162E+00  5.26520744667E+00  5.39849680777E+00
  5.53516040510E+00  5.67528365788E+00  5.81895414769E+00  5.96626167327E+00
  6.11729830661E+00  6.27215845052E+00  6.43093889764E+00  6.59373889092E+00
  6.76066018565E+00  6.93180711308E+00  7.10728664560E+00  7.28720846363E+00
  7.47168502418E+00  7.66083163108E+00  7.85476650714E+00  8.05361086796E+00
  8.25748899774E+00  8.46652832695E+00  8.68085951197E+00  8.90061651677E+00
  9.12593669663E+00  9.35696088401E+00  9.59383347653E+00  9.83670252728E+00
  1.00857198373E+01  1.03410410506E+01  1.06028257511E+01  1.08712375629E+01
  1.11464442521E+01  1.14286178317E+01  1.17179346696E+01  1.20145755980E+01
  1.23187260273E+01  1.26305760614E+01  1.29503206167E+01  1.32781595440E+01
  1.36142977531E+01  1.39589453416E+01  1.43123177253E+01  1.46746357735E+01
  1.50461259468E+01  1.54270204386E+01  1.58175573203E+01  1.62179806903E+01
  1.66285408261E+01  1.70494943413E+01  1.74811043454E+01  1.79236406088E+01
  1.83773797310E+01  1.88426053139E+01  1.93196081384E+01  1.98086863469E+01
  2.03101456292E+01  2.08242994137E+01  2.13514690632E+01  2.18919840759E+01
  2.24461822913E+01  2.30144101013E+01  2.35970226668E+01  2.41943841396E+01
  2.48068678901E+01  2.54348567406E+01  2.60787432045E+01  2.67389297319E+01
  2.74158289607E+01  2.81098639751E+01  2.88214685696E+01  2.95510875201E+01
  3.02991768623E+01  3.10662041764E+01  3.18526488793E+01  3.26590025247E+01
  3.34857691099E+01  3.43334653907E+01  3.52026212051E+01  3.60937798037E+01
  3.70074981896E+01  3.79443474666E+01  3.89049131959E+01  3.98897957625E+01
  4.08996107499E+01  4.19349893254E+01  4.29965786344E+01  4.40850422047E+01
  4.52010603614E+01  4.63453306523E+01  4.75185682835E+01  4.87215065667E+01
  4.99548973776E+01  5.12195116255E+01  5.25161397355E+01  5.38455921424E+01
  5.52086997972E+01  5.66063146865E+01  5.80393103653E+01  5.95085825023E+01
  6.10150494406E+01
  </PP_R>
  <PP_RAB>
  1.14472743055E-05  1.17370634342E-05  1.20341886096E-05  1.23388355447E-05
  1.26511946536E-05  1.29714611711E-05  1.32998352740E-05  1.36365222069E-05
  1.39817324101E-05  1.43356816512E-05  1.46985911600E-05  1.50706877668E-05
  1.54522040440E-05  1.58433784517E-05  1.62444554867E-05  1.66556858352E-05
  1.70773265296E-05  1.75096411089E-05  1.79528997839E-05  1.84073796057E-05
  1.88733646389E-05  1.93511461395E-05  1.98410227363E-05  2.03433006182E-05
  2.08582937252E-05  2.13863239448E-05  2.19277213130E-05  2.24828242209E-05
  2.30519796258E-05  2.36355432683E-05  2.42338798948E-05  2.48473634851E-05
  2.54763774865E-05  2.61213150531E-05  2.67825792919E-05  2.74605835146E-05
  2.81557514960E-05  2.88685177386E-05  2.95993277445E-05  3.03486382938E-05
  3.11169177299E-05  3.19046462526E-05  3.27123162178E-05  3.35404324455E-05
  3.43895125353E-05  3.52600871899E-05  3.61527005468E-05  3.70679105184E-05
  3.80062891408E-05  3.89684229310E-05  3.99549132542E-05  4.09663766988E-05
  4.20034454623E-05  4.30667677467E-05  4.41570081628E-05  4.52748481464E-05
  4.64209863840E-05  4.75961392491E-05  4.88010412507E-05  5.00364454917E-05
  5.13031241399E-05  5.26018689108E-05  5.39334915621E-05  5.52988244013E-05
  5.66987208059E-05  5.81340557567E-05  5.96057263847E-05  6.11146525321E-05
  6.26617773268E-05  6.42480677721E-05  6.58745153512E-05  6.75421366468E-05
  6.92519739765E-05  7.10050960442E-05  7.28025986084E-05  7.46456051667E-05
  7.65352676581E-05  7.84727671832E-05  8.04593147424E-05  8.24961519924E-05
  8.45845520229E-05  8.67258201518E-05  8.89212947416E-05  9.11723480351E-05
  9.34803870141E-05  9.58468542781E-05  9.82732289460E-05  1.00761027581E-04
  1.03311805138E-04  1.05927155937E-04  1.08608714657E-04  1.11358157358E-04
  1.14177202533E-04  1.17067612176E-04  1.20031192888E-04  1.23069797003E-04
  1.26185323747E-04  1.29379720426E-04  1.32654983642E-04  1.36013160541E-04
  1.39456350093E-04  1.42986704403E-04  1.46606430059E-04  1.50317789505E-04
  1.54123102464E-04  1.58024747378E-04  1.62025162904E-04  1.66126849431E-04
  1.70332370646E-04  1.74644355138E-04  1.79065498038E-04  1.83598562702E-04
  1.88246382445E-04  1.93011862305E-04  1.97897980862E-04  2.02907792099E-04
  2.08044427311E-04  2.13311097063E-04  2.18711093194E-04  2.24247790879E-04
  2.29924650732E-04  2.35745220977E-04  2.41713139659E-04  2.47832136922E-04
  2.54106037338E-04  2.60538762299E-04  2.67134332468E-04  2.73896870291E-04
  2.80830602573E-04  2.87939863124E-04  2.95229095463E-04  3.02702855597E-04
  3.10365814870E-04  3.18222762880E-04  3.26278610476E-04  3.34538392824E-04
  3.43007272559E-04  3.51690543004E-04  3.60593631488E-04  3.69722102729E-04
  3.79081662320E-04  3.88678160291E-04  3.98517594764E-04  4.08606115706E-04
  4.18950028772E-04  4.29555799244E-04  4.40430056074E-04  4.51579596026E-04
  4.63011387926E-04  4.74732577016E-04  4.86750489420E-04  4.99072636725E-04
  5.11706720674E-04  5.24660637981E-04  5.37942485266E-04  5.51560564115E-04
  5.65523386272E-04  5.79839678955E-04  5.94518390313E-04  6.09568695018E-04
  6.25000000000E-04  6.40821950328E-04  6.57044435235E-04  6.73677594303E-04
  6.90731823797E-04  7.08217783167E-04  7.26146401705E-04  7.44528885383E-04
  7.63376723850E-04  7.82701697620E-04  8.02515885430E-04  8.22831671792E-04
  8.43661754735E-04  8.65019153738E-04  8.86917217871E-04  9.09369634136E-04
  9.32390436026E-04  9.55994012290E-04  9.80195115931E-04  1.00500887343E-03
  1.03045079419E-03  1.05653678024E-03  1.08328313617E-03  1.11070657932E-03
  1.13882425024E-03  1.16765372340E-03  1.19721301813E-03  1.22752060998E-03
  1.25859544217E-03  1.29045693748E-03  1.32312501038E-03  1.35662007949E-03
  1.39096308031E-03  1.42617547833E-03  1.46227928245E-03  1.49929705873E-03
  1.53725194447E-03  1.57616766272E-03  1.61606853707E-03  1.65697950686E-03
  1.69892614279E-03  1.74193466285E-03  1.78603194879E-03  1.83124556283E-03
  1.87760376497E-03  1.92513553057E-03  1.97387056856E-03  2.02383933990E-03
  2.07507307671E-03  2.12760380174E-03  2.18146434841E-03  2.23668838131E-03
  2.29331041726E-03  2.35136584687E-03  2.41089095669E-03  2.47192295183E-03
  2.53449997928E-03  2.59866115172E-03  2.66444657198E-03  2.73189735808E-03
  2.80105566896E-03  2.87196473082E-03  2.94466886412E-03  3.01921351132E-03
  3.09564526525E-03  3.17401189824E-03  3.25436239199E-03  3.33674696817E-03
  3.42121711983E-03  3.50782564356E-03  3.59662667250E-03  3.68767571020E-03
  3.78102966526E-03  3.87674688694E-03  3.97488720163E-03  4.07551195021E-03
  4.17868402642E-03  4.28446791619E-03  4.39292973787E-03  4.50413728364E-03
  4.61816006183E-03  4.73506934040E-03  4.85493819144E-03  4.97784153690E-03
  5.10385619535E-03  5.23306093008E-03  5.36553649824E-03  5.50136570137E-03
  5.64063343715E-03  5.78342675244E-03  5.92983489772E-03  6.07994938285E-03
  6.23386403426E-03  6.39167505362E-03  6.55348107795E-03  6.71938324130E-03
  6.88948523790E-03  7.06389338705E-03  7.24271669951E-03  7.42606694569E-03
  7.61405872544E-03  7.80680953975E-03  8.00443986416E-03  8.20707322406E-03
  8.41483627188E-03  8.62785886629E-03  8.84627415336E-03  9.07021864974E-03
  9.29983232805E-03  9.53525870429E-03  9.77664492762E-03  1.00241418723E-02
  1.02779042319E-02  1.05380906163E-02  1.08048636504E-02  1.10783900759E-02
  1.13588408559E-02  1.16463912812E-02  1.19412210801E-02  1.22435145310E-02
  1.25534605770E-02  1.28712529445E-02  1.31970902641E-02  1.35311761947E-02
  1.38737195509E-02  1.42249344335E-02  1.45850403631E-02  1.49542624177E-02
  1.53328313732E-02  1.57209838474E-02  1.61189624482E-02  1.65270159254E-02
  1.69453993254E-02  1.73743741517E-02  1.78142085274E-02  1.82651773633E-02
  1.87275625296E-02  1.92016530322E-02  1.96877451930E-02  2.01861428354E-02
  2.06971574742E-02  2.12211085102E-02  2.17583234298E-02  2.23091380098E-02
  2.28738965273E-02  2.34529519748E-02  2.40466662806E-02  2.46554105358E-02
  2.52795652250E-02  2.59195204655E-02  2.65756762500E-02  2.72484426973E-02
  2.79382403083E-02  2.86455002290E-02  2.93706645197E-02  3.01141864319E-02
  3.08765306910E-02  3.16581737868E-02  3.24596042718E-02  3.32813230661E-02
  3.41238437707E-02  3.49876929885E-02  3.58734106534E-02  3.67815503677E-02
  3.77126797484E-02  3.86673807815E-02  3.96462501863E-02  4.06498997881E-02
  4.16789569006E-02  4.27340647178E-02  4.38158827167E-02  4.49250870685E-02
  4.60623710622E-02  4.72284455373E-02  4.84240393283E-02  4.96498997202E-02
  5.09067929156E-02  5.21955045138E-02  5.35168400014E-02  5.48716252561E-02
  5.62607070628E-02  5.76849536429E-02  5.91452551968E-02  6.06425244606E-02
  6.21776972762E-02  6.37517331767E-02  6.53656159857E-02  6.70203544325E-02
  6.87169827826E-02  7.04565614838E-02  7.22401778295E-02  7.40689466380E-02
  7.59440109492E-02  7.78665427395E-02  7.98377436538E-02  8.18588457568E-02
  8.39311123031E-02  8.60558385268E-02  8.82343524509E-02  9.04680157176E-02
  9.27582244391E-02  9.51064100704E-02  9.75140403040E-02  9.99826199871E-02
  1.02513692062E-01  1.05108838532E-01  1.07769681448E-01  1.10497883923E-01
  1.13295151172E-01  1.16163231579E-01  1.19103917787E-01  1.22119047820E-01
  1.25210506234E-01  1.28380225290E-01  1.31630186167E-01  1.34962420194E-01
  1.38379010128E-01  1.41882091447E-01  1.45473853692E-01  1.49156541832E-01
  1.52932457665E-01  1.56803961263E-01  1.60773472441E-01  1.64843472273E-01
  1.69016504641E-01  1.73295177827E-01  1.77682166140E-01  1.82180211591E-01
  1.86792125604E-01  1.91520790777E-01  1.96369162679E-01  2.01340271699E-01
  2.06437224944E-01  2.11663208174E-01  2.17021487799E-01  2.22515412919E-01
  2.28148417416E-01  2.33924022100E-01  2.39845836913E-01  2.45917563182E-01
  2.52142995933E-01  2.58526026264E-01  2.65070643778E-01  2.71780939073E-01
  2.78661106302E-01  2.85715445793E-01  2.92948366739E-01  3.00364389950E-01
  3.07968150683E-01  3.15764401536E-01  3.23758015418E-01  3.31953988599E-01
  3.40357443829E-01  3.48973633541E-01  3.57807943134E-01  3.66865894339E-01
  3.76153148670E-01  3.85675510964E-01  3.95438933008E-01  4.05449517257E-01
  4.15713520653E-01  4.26237358532E-01  4.37027608635E-01  4.48091015220E-01
  4.59434493276E-01  4.71065132847E-01  4.82990203459E-01  4.95217158672E-01
  5.07753640730E-01  5.20607485342E-01  5.33786726579E-01  5.47299601897E-01
  5.61154557282E-01  5.75360252532E-01  5.89925566670E-01  6.04859603490E-01
  6.20171697253E-01  6.35871418515E-01  6.51968580113E-01  6.68473243296E-01
  6.85395724018E-01  7.02746599378E-01  7.20536714240E-01  7.38777188003E-01
  7.57479421558E-01  7.76655104409E-01  7.96316221983E-01  8.16475063118E-01
  8.37144227747E-01  8.58336634768E-01  8.80065530128E-01  9.02344495093E-01
  9.25187454740E-01  9.48608686665E-01  9.72622829898E-01  9.97244894062E-01
  1.02249026875E+00  1.04837473314E+00  1.07491446586E+00  1.10212605512E+00
  1.13002650904E+00  1.15863326631E+00  1.18796420709E+00  1.21803766417E+00
  1.24887243444E+00  1.28048779064E+00  1.31290349339E+00  1.34613980356E+00
  1.38021749493E+00  1.41515786716E+00  1.45098275913E+00  1.48771456256E+00
  1.52537623602E+00
  </PP_RAB>
</PP_MESH>


<PP_LOCAL>
 -3.86906342135E+01 -3.86900752024E+01 -3.86894875802E+01 -3.86888765580E+01
 -3.86882487222E+01 -3.86875811450E+01 -3.86868723349E+01 -3.86861274103E+01
 -3.86853450448E+01 -3.86845226698E+01 -3.86836577147E+01 -3.86827485032E+01
 -3.86817931506E+01 -3.86807893092E+01 -3.86797344264E+01 -3.86786258358E+01
 -3.86774606523E+01 -3.86762356457E+01 -3.86749479901E+01 -3.86735948036E+01
 -3.86721737171E+01 -3.86706809014E+01 -3.86691115393E+01 -3.86674625005E+01
 -3.86657300010E+01 -3.86639095103E+01 -3.86619963096E+01 -3.86599861108E+01
 -3.86578747774E+01 -3.86556565565E+01 -3.86533258650E+01 -3.86508774402E+01
 -3.86483052509E+01 -3.86456033400E+01 -3.86427654235E+01 -3.86397845793E+01
 -3.86366536391E+01 -3.86333652739E+01 -3.86299118804E+01 -3.86262853077E+01
 -3.86224769300E+01 -3.86184778984E+01 -3.86142791607E+01 -3.86098709118E+01
 -3.86052427798E+01 -3.86003842811E+01 -3.85952843519E+01 -3.85899314348E+01
 -3.85843134762E+01 -3.85784176426E+01 -3.85722308356E+01 -3.85657394844E+01
 -3.85589291204E+01 -3.85517848026E+01 -3.85442910698E+01 -3.85364316095E+01
 -3.85281896324E+01 -3.85195477617E+01 -3.85104876829E+01 -3.85009905131E+01
 -3.84910367506E+01 -3.84806060889E+01 -3.84696773847E+01 -3.84582288104E+01
 -3.84462379255E+01 -3.84336815159E+01 -3.84205355576E+01 -3.84067752987E+01
 -3.83923753223E+01 -3.83773094466E+01 -3.83615507821E+01 -3.83450718562E+01
 -3.83278445636E+01 -3.83098401397E+01 -3.82910293374E+01 -3.82713824693E+01
 -3.82508693646E+01 -3.82294595479E+01 -3.82071223457E+01 -3.81838269420E+01
 -3.81595425015E+01 -3.81342383283E+01 -3.81078840281E+01 -3.80804496478E+01
 -3.80519058863E+01 -3.80222243321E+01 -3.79913776771E+01 -3.79593399799E+01
 -3.79260869549E+01 -3.78915962896E+01 -3.78558479953E+01 -3.78188247786E+01
 -3.77805124444E+01 -3.77409003304E+01 -3.76999817815E+01 -3.76577546503E+01
 -3.76142218270E+01 -3.75693918026E+01 -3.75232792651E+01 -3.74759057446E+01
 -3.74273002361E+01 -3.73774998641E+01 -3.73265506029E+01 -3.72745079583E+01
 -3.72214376703E+01 -3.71674164276E+01 -3.71125325468E+01 -3.70568866214E+01
 -3.70005921551E+01 -3.69437761298E+01 -3.68865794848E+01 -3.68291575169E+01
 -3.67716801492E+01 -3.67143320837E+01 -3.66573127786E+01 -3.66008362118E+01
 -3.65451304246E+01 -3.64904368302E+01 -3.64370092309E+01 -3.63851124888E+01
 -3.63350208795E+01 -3.62870160566E+01 -3.62413846119E+01 -3.61984152344E+01
 -3.61583954173E+01 -3.61216077304E+01 -3.60883256814E+01 -3.60588091697E+01
 -3.60332995485E+01 -3.60120143738E+01 -3.59951419160E+01 -3.59828355077E+01
 -3.59752078567E+01 -3.59723254697E+01 -3.59742033260E+01 -3.59808000051E+01
 -3.59920134798E+01 -3.60076777609E+01 -3.60275606442E+01 -3.60513627899E+01
 -3.60787183394E+01 -3.61091972737E+01 -3.61423096767E+01 -3.61775120169E+01
 -3.62142155032E+01 -3.62517964789E+01 -3.62896087388E+01 -3.63269975437E+01
 -3.63633149983E+01 -3.63979363480E+01 -3.64302766377E+01 -3.64598070915E+01
 -3.64860705037E+01 -3.65086948859E+01 -3.65274046287E+01 -3.65420284855E+01
 -3.65525037918E+01 -3.65588764904E+01 -3.65612967417E+01 -3.65600101473E+01
 -3.65553448840E+01 -3.65476953267E+01 -3.65375029969E+01 -3.65252358908E+01
 -3.65113673885E+01 -3.64963560075E+01 -3.64806272215E+01 -3.64645584156E+01
 -3.64484678093E+01 -3.64326078493E+01 -3.64171632095E+01 -3.64022531544E+01
 -3.63879376717E+01 -3.63742265098E+01 -3.63610900792E+01 -3.63484711161E+01
 -3.63362960738E+01 -3.63244853734E+01 -3.63129618801E+01 -3.63016572569E+01
 -3.62905161187E+01 -3.62794981442E+01 -3.62685784784E+01 -3.62577468525E+01
 -3.62470058690E+01 -3.62363688658E+01 -3.62258576841E+01 -3.62155005744E+01
 -3.62053303726E+01 -3.61953829975E+01 -3.61856962619E+01 -3.61763089556E+01
 -3.61672601414E+01 -3.61585886085E+01 -3.61503324339E+01 -3.61425286158E+01
 -3.61352127550E+01 -3.61284187691E+01 -3.61221786312E+01 -3.61165221300E+01
 -3.61114766516E+01 -3.61070669799E+01 -3.61033151189E+01 -3.61002401354E+01
 -3.60978580226E+01 -3.60961815819E+01 -3.60952203229E+01 -3.60949803789E+01
 -3.60954644332E+01 -3.60966716566E+01 -3.60985976495E+01 -3.61012343876E+01
 -3.61045701673E+01 -3.61085895497E+01 -3.61132733009E+01 -3.61185983323E+01
 -3.61245376410E+01 -3.61310602586E+01 -3.61381312166E+01 -3.61457115438E+01
 -3.61537583152E+01 -3.61622247770E+01 -3.61710605848E+01 -3.61802121959E+01
 -3.61896234727E+01 -3.61992365650E+01 -3.62089931584E+01 -3.62188361932E+01
 -3.62287121867E+01 -3.62385743187E+01 -3.62483864813E+01 -3.62581285345E+01
 -3.62678030653E+01 -3.62774440059E+01 -3.62871275316E+01 -3.62969857158E+01
 -3.63072234530E+01 -3.63181391321E+01 -3.63301493750E+01 -3.63438177296E+01
 -3.63598862753E+01 -3.63793072733E+01 -3.64032685594E+01 -3.64332001839E+01
 -3.64707388550E+01 -3.65176077327E+01 -3.65753361458E+01 -3.66446860562E+01
 -3.67245504113E+01 -3.68099238671E+01 -3.68884060393E+01 -3.69353681186E+01
 -3.69122694089E+01 -3.67017604786E+01 -3.68102265409E+01 -3.68189107548E+01
 -3.64654248340E+01 -3.66996320342E+01 -3.70371175978E+01 -3.71346451426E+01
 -3.70181947832E+01 -3.67633184180E+01 -3.64483274394E+01 -3.61297208845E+01
 -3.58406070130E+01 -3.55938283897E+01 -3.53887084516E+01 -3.52180342473E+01
 -3.50726793599E+01 -3.49438476350E+01 -3.48238961309E+01 -3.47065053244E+01
 -3.45865947077E+01 -3.44601583657E+01 -3.43240944562E+01 -3.41760576090E+01
 -3.40143404328E+01 -3.38377792270E+01 -3.36456760701E+01 -3.34377312026E+01
 -3.32139823390E+01 -3.29747487333E+01 -3.27205770504E+01 -3.24521848228E+01
 -3.21703978063E+01 -3.18760814818E+01 -3.15700737875E+01 -3.12531329363E+01
 -3.09259167587E+01 -3.05890057662E+01 -3.02429718896E+01 -2.98884825299E+01
 -2.95264191471E+01 -2.91579819345E+01 -2.87847440568E+01 -2.84086065722E+01
 -2.80316070255E+01 -2.76559469733E+01 -2.72870312724E+01 -2.69345830819E+01
 -2.65692188387E+01 -2.61145161137E+01 -2.56484932882E+01 -2.53360424865E+01
 -2.50239588315E+01 -2.45140038637E+01 -2.39579581233E+01 -2.35090112132E+01
 -2.31056052083E+01 -2.26689108650E+01 -2.21978859108E+01 -2.17164087746E+01
 -2.12367966838E+01 -2.07613084478E+01 -2.02901891893E+01 -1.98243710424E+01
 -1.93636705732E+01 -1.89075412155E+01 -1.84565622443E+01 -1.80116513759E+01
 -1.75737061590E+01 -1.71435499291E+01 -1.67218831059E+01 -1.63092844193E+01
 -1.59063592752E+01 -1.55135434063E+01 -1.51306279459E+01 -1.47572013443E+01
 -1.43929856374E+01 -1.40377526150E+01 -1.36912798545E+01 -1.33533504431E+01
 -1.30237527720E+01 -1.27022803603E+01 -1.23887316888E+01 -1.20829100594E+01
 -1.17846235896E+01 -1.14936852501E+01 -1.12099126973E+01 -1.09331281475E+01
 -1.06631583271E+01 -1.03998343325E+01 -1.01429914604E+01 -9.89246902377E+00
 -9.64811014405E+00 -9.40994089014E+00 -9.17815664361E+00 -8.95180795404E+00
 -8.73061272881E+00 -8.51514046855E+00 -8.30497121993E+00 -8.09997620226E+00
 -7.90002980617E+00 -7.70500947116E+00 -7.51479556261E+00 -7.32927125195E+00
 -7.14832240428E+00 -6.97183747763E+00 -6.79970743863E+00 -6.63182569958E+00
 -6.46808808200E+00 -6.30839281134E+00 -6.15264054565E+00 -6.00073443606E+00
 -5.85258020658E+00 -5.70808623433E+00 -5.56716363475E+00 -5.42972642068E+00
 -5.29569170173E+00 -5.16497918787E+00 -5.03750867779E+00 -4.91319640109E+00
 -4.79195477393E+00 -4.67369752467E+00 -4.55834475743E+00 -4.44582326711E+00
 -4.33606448979E+00 -4.22900326636E+00 -4.12457707545E+00 -4.02272496325E+00
 -3.92338661761E+00 -3.82650203547E+00 -3.73201166485E+00 -3.63985671319E+00
 -3.54997942679E+00 -3.46232327909E+00 -3.37683307283E+00 -3.29345497987E+00
 -3.21213654167E+00 -3.13282664738E+00 -3.05547550047E+00 -2.98003458056E+00
 -2.90645660423E+00 -2.83469548662E+00 -2.76470630489E+00 -2.69644526365E+00
 -2.62986966234E+00 -2.56493786462E+00 -2.50160926921E+00 -2.43984428233E+00
 -2.37960429122E+00 -2.32085163906E+00 -2.26354960012E+00 -2.20766235626E+00
 -2.15315497562E+00 -2.09999336956E+00 -2.04814436497E+00 -1.99757550042E+00
 -1.94825518558E+00 -1.90015259366E+00 -1.85323765896E+00 -1.80748105812E+00
 -1.76285419179E+00 -1.71932916671E+00 -1.67687877833E+00 -1.63547649377E+00
 -1.59509643526E+00 -1.55571336395E+00 -1.51730266413E+00 -1.47984032787E+00
 -1.44330293999E+00 -1.40766766342E+00 -1.37291222498E+00 -1.33901490136E+00
 -1.30595450565E+00 -1.27371037401E+00 -1.24226235283E+00 -1.21159078605E+00
 -1.18167650295E+00 -1.15250080613E+00 -1.12404545984E+00 -1.09629267855E+00
 -1.06922511587E+00 -1.04282585369E+00 -1.01707839162E+00 -9.91966636656E-01
 -9.67474893128E-01 -9.43587852902E-01 -9.20290585801E-01 -8.97568530274E-01
 -8.75407484297E-01 -8.53793596495E-01 -8.32713357484E-01 -8.12153591428E-01
 -7.92101447805E-01 -7.72544393372E-01 -7.53470204334E-01 -7.34866958701E-01
 -7.16723028839E-01 -6.99027074201E-01 -6.81768034241E-01 -6.64935121495E-01
 -6.48517814845E-01 -6.32505852941E-01 -6.16889227785E-01 -6.01658178478E-01
 -5.86803185118E-01 -5.72314962851E-01 -5.58184456067E-01 -5.44402832738E-01
 -5.30961478901E-01 -5.17851993273E-01 -5.05066181998E-01 -4.92596053529E-01
 -4.80433813628E-01 -4.68571860500E-01 -4.57002780039E-01 -4.45719341192E-01
 -4.34714491443E-01 -4.23981352402E-01 -4.13513215508E-01 -4.03303537835E-01
 -3.93345938002E-01
</PP_LOCAL>


<PP_NONLOCAL>
  <PP_BETA>
    1    0             Beta    L
   347
 -2.41849718243E-03 -2.47972133934E-03 -2.54249536272E-03 -2.60685848527E-03
 -2.67285650184E-03 -2.74053836026E-03 -2.80990156693E-03 -2.88101045432E-03
 -2.95395791530E-03 -3.02876499065E-03 -3.10541344997E-03 -3.18404293573E-03
 -3.26463384565E-03 -3.34726227258E-03 -3.43203056720E-03 -3.51887160005E-03
 -3.60798966731E-03 -3.69930546603E-03 -3.79296178312E-03 -3.88896947986E-03
 -3.98741762437E-03 -4.08837695234E-03 -4.19187085683E-03 -4.29797862500E-03
 -4.40677078852E-03 -4.51835503510E-03 -4.63272916649E-03 -4.74997973364E-03
 -4.87023861256E-03 -4.99353469348E-03 -5.11992867495E-03 -5.24954477383E-03
 -5.38244983637E-03 -5.51871220015E-03 -5.65841163914E-03 -5.80164761350E-03
 -5.94850537817E-03 -6.09909171636E-03 -6.25347435640E-03 -6.41178375476E-03
 -6.57411340967E-03 -6.74051821262E-03 -6.91115315475E-03 -7.08612072295E-03
 -7.26549465350E-03 -7.44941483871E-03 -7.63799754763E-03 -7.83132499047E-03
 -8.02959826917E-03 -8.23283371202E-03 -8.44125494373E-03 -8.65494539737E-03